In2Se3_bronze from Matlab for Lammps

24500 atoms

2 atom types

-124.274539 124.274383 xlo xhi
-143.505900 143.500000 ylo yhi
-21.393262 21.393265 zlo zhi

Masses

1 1.148180e+02
2 7.896000e+01

Atoms

1 9683 1 1.500000e+00 119.540520 -142.450000 -2.130539
2 9683 1 1.500000e+00 121.907505 -142.450000 2.131313
3 9684 1 1.500000e+00 123.091224 -140.400000 -2.118371
4 9882 1 1.500000e+00 112.439112 -142.450000 -2.199061
5 9882 1 1.500000e+00 114.806096 -142.450000 2.062042
6 9883 1 1.500000e+00 115.989816 -140.400000 -2.323575
7 9883 1 1.500000e+00 118.356800 -140.400000 1.982857
8 9884 1 1.500000e+00 119.540520 -138.350000 -2.312238
9 9884 1 1.500000e+00 121.907505 -138.350000 2.040297
10 9885 1 1.500000e+00 123.091224 -136.300000 -2.163709
11 10081 1 1.500000e+00 105.337703 -142.450000 -2.263881
12 10081 1 1.500000e+00 107.704688 -142.450000 1.995749
13 10082 1 1.500000e+00 108.888408 -140.400000 -2.521075
14 10082 1 1.500000e+00 111.255392 -140.400000 1.782067
15 10083 1 1.500000e+00 112.439112 -138.350000 -2.647641
16 10083 1 1.500000e+00 114.806096 -138.350000 1.701231
17 10084 1 1.500000e+00 115.989816 -136.300000 -2.638705
18 10084 1 1.500000e+00 118.356800 -136.300000 1.756950
19 10085 1 1.500000e+00 119.540520 -134.250000 -2.492099
20 10085 1 1.500000e+00 121.907505 -134.250000 1.950202
21 10086 1 1.500000e+00 123.091224 -132.200000 -2.208404
22 10280 1 1.500000e+00 98.236295 -142.450000 -2.322917
23 10280 1 1.500000e+00 100.603280 -142.450000 1.934564
24 10281 1 1.500000e+00 101.786999 -140.400000 -2.704524
25 10281 1 1.500000e+00 104.153984 -140.400000 1.593253
26 10282 1 1.500000e+00 105.337703 -138.350000 -2.964925
27 10282 1 1.500000e+00 107.704688 -138.350000 1.376739
28 10283 1 1.500000e+00 108.888408 -136.300000 -3.095870
29 10283 1 1.500000e+00 111.255392 -136.300000 1.292171
30 10284 1 1.500000e+00 112.439112 -134.250000 -3.091683
31 10284 1 1.500000e+00 114.806096 -134.250000 1.344071
32 10285 1 1.500000e+00 115.989816 -132.200000 -2.949368
33 10285 1 1.500000e+00 118.356800 -132.200000 1.534246
34 10286 1 1.500000e+00 119.540520 -130.150000 -2.668674
35 10286 1 1.500000e+00 121.907505 -130.150000 1.861754
36 10287 1 1.500000e+00 123.091224 -128.100000 -2.252097
37 10479 1 1.500000e+00 91.134887 -142.450000 -2.374269
38 10479 1 1.500000e+00 93.501871 -142.450000 1.880454
39 10480 1 1.500000e+00 94.685591 -140.400000 -2.868025
40 10480 1 1.500000e+00 97.052576 -140.400000 1.422484
41 10481 1 1.500000e+00 98.236295 -138.350000 -3.253891
42 10481 1 1.500000e+00 100.603280 -138.350000 1.077251
43 10482 1 1.500000e+00 101.786999 -136.300000 -3.520508
44 10482 1 1.500000e+00 104.153984 -136.300000 0.855114
45 10483 1 1.500000e+00 105.337703 -134.250000 -3.658874
46 10483 1 1.500000e+00 107.704688 -134.250000 0.763993
47 10484 1 1.500000e+00 108.888408 -132.200000 -3.662516
48 10484 1 1.500000e+00 111.255392 -132.200000 0.809221
49 10485 1 1.500000e+00 112.439112 -130.150000 -3.527610
50 10485 1 1.500000e+00 114.806096 -130.150000 0.993437
51 10486 1 1.500000e+00 115.989816 -128.100000 -3.253063
52 10486 1 1.500000e+00 118.356800 -128.100000 1.316537
53 10487 1 1.500000e+00 119.540520 -126.050000 -2.840540
54 10487 1 1.500000e+00 121.907505 -126.050000 1.775664
55 10488 1 1.500000e+00 123.091224 -124.000000 -2.294435
56 10678 1 1.500000e+00 84.033478 -142.450000 -2.416289
57 10678 1 1.500000e+00 86.400463 -142.450000 1.835158
58 10679 1 1.500000e+00 87.584183 -140.400000 -3.006323
59 10679 1 1.500000e+00 89.951167 -140.400000 1.275248
60 10680 1 1.500000e+00 91.134887 -138.350000 -3.505252
61 10680 1 1.500000e+00 93.501871 -138.350000 0.812393
62 10681 1 1.500000e+00 94.685591 -136.300000 -3.898972
63 10681 1 1.500000e+00 97.052576 -136.300000 0.459826
64 10682 1 1.500000e+00 98.236295 -134.250000 -4.175445
65 10682 1 1.500000e+00 100.603280 -134.250000 0.228613
66 10683 1 1.500000e+00 101.786999 -132.200000 -4.324925
67 10683 1 1.500000e+00 104.153984 -132.200000 0.127439
68 10684 1 1.500000e+00 105.337703 -130.150000 -4.340143
69 10684 1 1.500000e+00 107.704688 -130.150000 0.162444
70 10685 1 1.500000e+00 108.888408 -128.100000 -4.216452
71 10685 1 1.500000e+00 111.255392 -128.100000 0.337103
72 10686 1 1.500000e+00 112.439112 -126.050000 -3.951913
73 10686 1 1.500000e+00 114.806096 -126.050000 0.652153
74 10687 1 1.500000e+00 115.989816 -124.000000 -3.547345
75 10687 1 1.500000e+00 118.356800 -124.000000 1.105577
76 10688 1 1.500000e+00 119.540520 -121.950000 -3.006314
77 10688 1 1.500000e+00 121.907505 -121.950000 1.692626
78 10689 1 1.500000e+00 123.091224 -119.900000 -2.335078
79 10877 1 1.500000e+00 76.932070 -142.450000 -2.447625
80 10877 1 1.500000e+00 79.299055 -142.450000 1.800131
81 10878 1 1.500000e+00 80.482774 -140.400000 -3.114974
82 10878 1 1.500000e+00 82.849759 -140.400000 1.156278
83 10879 1 1.500000e+00 84.033478 -138.350000 -3.710929
84 10879 1 1.500000e+00 86.400463 -138.350000 0.590677
85 10880 1 1.500000e+00 87.584183 -136.300000 -4.219098
86 10880 1 1.500000e+00 89.951167 -136.300000 0.119013
87 10881 1 1.500000e+00 91.134887 -134.250000 -4.624791
88 10881 1 1.500000e+00 93.501871 -134.250000 -0.244861
89 10882 1 1.500000e+00 94.685591 -132.200000 -4.915305
90 10882 1 1.500000e+00 97.052576 -132.200000 -0.489185
91 10883 1 1.500000e+00 98.236295 -130.150000 -5.080159
92 10883 1 1.500000e+00 100.603280 -130.150000 -0.604517
93 10884 1 1.500000e+00 101.786999 -128.100000 -5.111298
94 10884 1 1.500000e+00 104.153984 -128.100000 -0.583914
95 10885 1 1.500000e+00 105.337703 -126.050000 -5.003246
96 10885 1 1.500000e+00 107.704688 -126.050000 -0.423065
97 10886 1 1.500000e+00 108.888408 -124.000000 -4.753218
98 10886 1 1.500000e+00 111.255392 -124.000000 -0.120381
99 10887 1 1.500000e+00 112.439112 -121.950000 -4.361176
100 10887 1 1.500000e+00 114.806096 -121.950000 0.322967
101 10888 1 1.500000e+00 115.989816 -119.900000 -3.829843
102 10888 1 1.500000e+00 118.356800 -119.900000 0.903063
103 10889 1 1.500000e+00 119.540520 -117.850000 -3.164661
104 10889 1 1.500000e+00 121.907505 -117.850000 1.613307
105 10890 1 1.500000e+00 123.091224 -115.800000 -2.373699
106 11076 1 1.500000e+00 69.830662 -142.450000 -2.467270
107 11076 1 1.500000e+00 72.197646 -142.450000 1.776500
108 11077 1 1.500000e+00 73.381366 -140.400000 -3.190484
109 11077 1 1.500000e+00 75.748351 -140.400000 1.069398
110 11078 1 1.500000e+00 76.932070 -138.350000 -3.864312
111 11078 1 1.500000e+00 79.299055 -138.350000 0.419229
112 11079 1 1.500000e+00 80.482774 -136.300000 -4.470596
113 11079 1 1.500000e+00 82.849759 -136.300000 -0.156373
114 11080 1 1.500000e+00 84.033478 -134.250000 -4.992470
115 11080 1 1.500000e+00 86.400463 -134.250000 -0.641212
116 11081 1 1.500000e+00 87.584183 -132.200000 -5.414681
117 11081 1 1.500000e+00 89.951167 -132.200000 -1.020833
118 11082 1 1.500000e+00 91.134887 -130.150000 -5.723872
119 11082 1 1.500000e+00 93.501871 -130.150000 -1.282795
120 11083 1 1.500000e+00 94.685591 -128.100000 -5.908840
121 11083 1 1.500000e+00 97.052576 -128.100000 -1.416909
122 11084 1 1.500000e+00 98.236295 -126.050000 -5.960749
123 11084 1 1.500000e+00 100.603280 -126.050000 -1.415432
124 11085 1 1.500000e+00 101.786999 -124.000000 -5.873296
125 11085 1 1.500000e+00 104.153984 -124.000000 -1.273217
126 11086 1 1.500000e+00 105.337703 -121.950000 -5.642844
127 11086 1 1.500000e+00 107.704688 -121.950000 -0.987819
128 11087 1 1.500000e+00 108.888408 -119.900000 -5.268492
129 11087 1 1.500000e+00 111.255392 -119.900000 -0.559548
130 11088 1 1.500000e+00 112.439112 -117.850000 -4.752103
131 11088 1 1.500000e+00 114.806096 -117.850000 0.008528
132 11089 1 1.500000e+00 115.989816 -115.800000 -4.098284
133 11089 1 1.500000e+00 118.356800 -115.800000 0.710627
134 11090 1 1.500000e+00 119.540520 -113.750000 -3.314306
135 11090 1 1.500000e+00 121.907505 -113.750000 1.538348
136 11091 1 1.500000e+00 123.091224 -111.700000 -2.409986
137 11275 1 1.500000e+00 62.729254 -142.450000 -2.474592
138 11275 1 1.500000e+00 65.096238 -142.450000 1.765025
139 11276 1 1.500000e+00 66.279958 -140.400000 -3.230427
140 11276 1 1.500000e+00 68.646942 -140.400000 1.017399
141 11277 1 1.500000e+00 69.830662 -138.350000 -3.960471
142 11277 1 1.500000e+00 72.197646 -138.350000 0.303560
143 11278 1 1.500000e+00 73.381366 -136.300000 -4.645384
144 11278 1 1.500000e+00 75.748351 -136.300000 -0.357480
145 11279 1 1.500000e+00 76.932070 -134.250000 -5.266665
146 11279 1 1.500000e+00 79.299055 -134.250000 -0.947701
147 11280 1 1.500000e+00 80.482774 -132.200000 -5.807002
148 11280 1 1.500000e+00 82.849759 -132.200000 -1.450417
149 11281 1 1.500000e+00 84.033478 -130.150000 -6.250593
150 11281 1 1.500000e+00 86.400463 -130.150000 -1.850590
151 11282 1 1.500000e+00 87.584183 -128.100000 -6.583446
152 11282 1 1.500000e+00 89.951167 -128.100000 -2.135111
153 11283 1 1.500000e+00 91.134887 -126.050000 -6.793646
154 11283 1 1.500000e+00 93.501871 -126.050000 -2.293053
155 11284 1 1.500000e+00 94.685591 -124.000000 -6.871580
156 11284 1 1.500000e+00 97.052576 -124.000000 -2.315877
157 11285 1 1.500000e+00 98.236295 -121.950000 -6.810124
158 11285 1 1.500000e+00 100.603280 -121.950000 -2.197602
159 11286 1 1.500000e+00 101.786999 -119.900000 -6.604784
160 11286 1 1.500000e+00 104.153984 -119.900000 -1.934921
161 11287 1 1.500000e+00 105.337703 -117.850000 -6.253787
162 11287 1 1.500000e+00 107.704688 -117.850000 -1.527272
163 11288 1 1.500000e+00 108.888408 -115.800000 -5.758125
164 11288 1 1.500000e+00 111.255392 -115.800000 -0.976861
165 11289 1 1.500000e+00 112.439112 -113.750000 -5.121548
166 11289 1 1.500000e+00 114.806096 -113.750000 -0.288631
167 11290 1 1.500000e+00 115.989816 -111.700000 -4.350506
168 11290 1 1.500000e+00 118.356800 -111.700000 0.529817
169 11291 1 1.500000e+00 119.540520 -109.650000 -3.454045
170 11291 1 1.500000e+00 121.907505 -109.650000 1.468351
171 11292 1 1.500000e+00 123.091224 -107.600000 -2.443647
172 11474 1 1.500000e+00 55.627845 -142.450000 -2.469358
173 11474 1 1.500000e+00 57.994830 -142.450000 1.766073
174 11475 1 1.500000e+00 59.178549 -140.400000 -3.233520
175 11475 1 1.500000e+00 61.545534 -140.400000 1.001954
176 11476 1 1.500000e+00 62.729254 -138.350000 -3.996315
177 11476 1 1.500000e+00 65.096238 -138.350000 0.247387
178 11477 1 1.500000e+00 66.279958 -136.300000 -4.737843
179 11477 1 1.500000e+00 68.646942 -136.300000 -0.477844
180 11478 1 1.500000e+00 69.830662 -134.250000 -5.438563
181 11478 1 1.500000e+00 72.197646 -134.250000 -1.154477
182 11479 1 1.500000e+00 73.381366 -132.200000 -6.079660
183 11479 1 1.500000e+00 75.748351 -132.200000 -1.764131
184 11480 1 1.500000e+00 76.932070 -130.150000 -6.643392
185 11480 1 1.500000e+00 79.299055 -130.150000 -2.289652
186 11481 1 1.500000e+00 80.482774 -128.100000 -7.113432
187 11481 1 1.500000e+00 82.849759 -128.100000 -2.715435
188 11482 1 1.500000e+00 84.033478 -126.050000 -7.475167
189 11482 1 1.500000e+00 86.400463 -126.050000 -3.027720
190 11483 1 1.500000e+00 87.584183 -124.000000 -7.715983
191 11483 1 1.500000e+00 89.951167 -124.000000 -3.214850
192 11484 1 1.500000e+00 91.134887 -121.950000 -7.825500
193 11484 1 1.500000e+00 93.501871 -121.950000 -3.267500
194 11485 1 1.500000e+00 94.685591 -119.900000 -7.795772
195 11485 1 1.500000e+00 97.052576 -119.900000 -3.178851
196 11486 1 1.500000e+00 98.236295 -117.850000 -7.621447
197 11486 1 1.500000e+00 100.603280 -117.850000 -2.944731
198 11487 1 1.500000e+00 101.786999 -115.800000 -7.299873
199 11487 1 1.500000e+00 104.153984 -115.800000 -2.563698
200 11488 1 1.500000e+00 105.337703 -113.750000 -6.831157
201 11488 1 1.500000e+00 107.704688 -113.750000 -2.037080
202 11489 1 1.500000e+00 108.888408 -111.700000 -6.218176
203 11489 1 1.500000e+00 111.255392 -111.700000 -1.368960
204 11490 1 1.500000e+00 112.439112 -109.650000 -5.466535
205 11490 1 1.500000e+00 114.806096 -109.650000 -0.566118
206 11491 1 1.500000e+00 115.989816 -107.600000 -4.584479
207 11491 1 1.500000e+00 118.356800 -107.600000 0.362090
208 11492 1 1.500000e+00 119.540520 -105.550000 -3.582751
209 11492 1 1.500000e+00 121.907505 -105.550000 1.403880
210 11493 1 1.500000e+00 123.091224 -103.500000 -2.474413
211 11673 1 1.500000e+00 48.526437 -142.450000 -2.451733
212 11673 1 1.500000e+00 50.893421 -142.450000 1.779611
213 11674 1 1.500000e+00 52.077141 -140.400000 -3.199662
214 11674 1 1.500000e+00 54.444126 -140.400000 1.023558
215 11675 1 1.500000e+00 55.627845 -138.350000 -3.970691
216 11675 1 1.500000e+00 57.994830 -138.350000 0.252517
217 11676 1 1.500000e+00 59.178549 -136.300000 -4.745001
218 11676 1 1.500000e+00 61.545534 -136.300000 -0.513596
219 11677 1 1.500000e+00 62.729254 -134.250000 -5.502639
220 11677 1 1.500000e+00 65.096238 -134.250000 -1.254893
221 11678 1 1.500000e+00 66.279958 -132.200000 -6.223890
222 11678 1 1.500000e+00 68.646942 -132.200000 -1.951891
223 11679 1 1.500000e+00 69.830662 -130.150000 -6.889646
224 11679 1 1.500000e+00 72.197646 -130.150000 -2.585870
225 11680 1 1.500000e+00 73.381366 -128.100000 -7.481764
226 11680 1 1.500000e+00 75.748351 -128.100000 -3.139230
227 11681 1 1.500000e+00 76.932070 -126.050000 -7.983409
228 11681 1 1.500000e+00 79.299055 -126.050000 -3.595820
229 11682 1 1.500000e+00 80.482774 -124.000000 -8.379367
230 11682 1 1.500000e+00 82.849759 -124.000000 -3.941242
231 11683 1 1.500000e+00 84.033478 -121.950000 -8.656335
232 11683 1 1.500000e+00 86.400463 -121.950000 -4.163124
233 11684 1 1.500000e+00 87.584183 -119.900000 -8.803174
234 11684 1 1.500000e+00 89.951167 -119.900000 -4.251357
235 11685 1 1.500000e+00 91.134887 -117.850000 -8.811125
236 11685 1 1.500000e+00 93.501871 -117.850000 -4.198291
237 11686 1 1.500000e+00 94.685591 -115.800000 -8.673975
238 11686 1 1.500000e+00 97.052576 -115.800000 -3.998882
239 11687 1 1.500000e+00 98.236295 -113.750000 -8.388185
240 11687 1 1.500000e+00 100.603280 -113.750000 -3.650802
241 11688 1 1.500000e+00 101.786999 -111.700000 -7.952965
242 11688 1 1.500000e+00 104.153984 -111.700000 -3.154485
243 11689 1 1.500000e+00 105.337703 -109.650000 -7.370304
244 11689 1 1.500000e+00 107.704688 -109.650000 -2.513138
245 11690 1 1.500000e+00 108.888408 -107.600000 -6.644939
246 11690 1 1.500000e+00 111.255392 -107.600000 -1.732690
247 11691 1 1.500000e+00 112.439112 -105.550000 -5.784287
248 11691 1 1.500000e+00 114.806096 -105.550000 -0.821698
249 11692 1 1.500000e+00 115.989816 -103.500000 -4.798318
250 11692 1 1.500000e+00 118.356800 -103.500000 0.208795
251 11693 1 1.500000e+00 119.540520 -101.450000 -3.699390
252 11693 1 1.500000e+00 121.907505 -101.450000 1.345454
253 11694 1 1.500000e+00 123.091224 -99.400000 -2.502033
254 11872 1 1.500000e+00 41.425029 -142.450000 -2.422286
255 11872 1 1.500000e+00 43.792013 -142.450000 1.805204
256 11873 1 1.500000e+00 44.975733 -140.400000 -3.129943
257 11873 1 1.500000e+00 47.342717 -140.400000 1.081517
258 11874 1 1.500000e+00 48.526437 -138.350000 -3.884424
259 11874 1 1.500000e+00 50.893421 -138.350000 0.318784
260 11875 1 1.500000e+00 52.077141 -136.300000 -4.666629
261 11875 1 1.500000e+00 54.444126 -136.300000 -0.463587
262 11876 1 1.500000e+00 55.627845 -134.250000 -5.456833
263 11876 1 1.500000e+00 57.994830 -134.250000 -1.245723
264 11877 1 1.500000e+00 59.178549 -132.200000 -6.235057
265 11877 1 1.500000e+00 61.545534 -132.200000 -2.007662
266 11878 1 1.500000e+00 62.729254 -130.150000 -6.981438
267 11878 1 1.500000e+00 65.096238 -130.150000 -2.729722
268 11879 1 1.500000e+00 66.279958 -128.100000 -7.676604
269 11879 1 1.500000e+00 68.646942 -128.100000 -3.392874
270 11880 1 1.500000e+00 69.830662 -126.050000 -8.302035
271 11880 1 1.500000e+00 72.197646 -126.050000 -3.979095
272 11881 1 1.500000e+00 73.381366 -124.000000 -8.840408
273 11881 1 1.500000e+00 75.748351 -124.000000 -4.471706
274 11882 1 1.500000e+00 76.932070 -121.950000 -9.275926
275 11882 1 1.500000e+00 79.299055 -121.950000 -4.855688
276 11883 1 1.500000e+00 80.482774 -119.900000 -9.594614
277 11883 1 1.500000e+00 82.849759 -119.900000 -5.117968
278 11884 1 1.500000e+00 84.033478 -117.850000 -9.784584
279 11884 1 1.500000e+00 86.400463 -117.850000 -5.247661
280 11885 1 1.500000e+00 87.584183 -115.800000 -9.836266
281 11885 1 1.500000e+00 89.951167 -115.800000 -5.236286
282 11886 1 1.500000e+00 91.134887 -113.750000 -9.742587
283 11886 1 1.500000e+00 93.501871 -113.750000 -5.077931
284 11887 1 1.500000e+00 94.685591 -111.700000 -9.499118
285 11887 1 1.500000e+00 97.052576 -111.700000 -4.769369
286 11888 1 1.500000e+00 98.236295 -109.650000 -9.104164
287 11888 1 1.500000e+00 100.603280 -109.650000 -4.310131
288 11889 1 1.500000e+00 101.786999 -107.600000 -8.558804
289 11889 1 1.500000e+00 104.153984 -107.600000 -3.702526
290 11890 1 1.500000e+00 105.337703 -105.550000 -7.866888
291 11890 1 1.500000e+00 107.704688 -105.550000 -2.951614
292 11891 1 1.500000e+00 108.888408 -103.500000 -7.034980
293 11891 1 1.500000e+00 111.255392 -103.500000 -2.065120
294 11892 1 1.500000e+00 112.439112 -101.450000 -6.072246
295 11892 1 1.500000e+00 114.806096 -101.450000 -1.053315
296 11893 1 1.500000e+00 115.989816 -99.400000 -4.990303
297 11893 1 1.500000e+00 118.356800 -99.400000 0.071168
298 11894 1 1.500000e+00 119.540520 -97.350000 -3.803022
299 11894 1 1.500000e+00 121.907505 -97.350000 1.293544
300 11895 1 1.500000e+00 123.091224 -95.300000 -2.526288
301 12071 1 1.500000e+00 34.323620 -142.450000 -2.381963
302 12071 1 1.500000e+00 36.690605 -142.450000 1.842030
303 12072 1 1.500000e+00 37.874324 -140.400000 -3.026602
304 12072 1 1.500000e+00 40.241309 -140.400000 1.173969
305 12073 1 1.500000e+00 41.425029 -138.350000 -3.740287
306 12073 1 1.500000e+00 43.792013 -138.350000 0.444058
307 12074 1 1.500000e+00 44.975733 -136.300000 -4.505246
308 12074 1 1.500000e+00 47.342717 -136.300000 -0.329426
309 12075 1 1.500000e+00 48.526437 -134.250000 -5.302619
310 12075 1 1.500000e+00 50.893421 -134.250000 -1.127262
311 12076 1 1.500000e+00 52.077141 -132.200000 -6.112802
312 12076 1 1.500000e+00 54.444126 -132.200000 -1.929652
313 12077 1 1.500000e+00 55.627845 -130.150000 -6.915819
314 12077 1 1.500000e+00 57.994830 -130.150000 -2.716586
315 12078 1 1.500000e+00 59.178549 -128.100000 -7.691689
316 12078 1 1.500000e+00 61.545534 -128.100000 -3.468215
317 12079 1 1.500000e+00 62.729254 -126.050000 -8.420804
318 12079 1 1.500000e+00 65.096238 -126.050000 -4.165225
319 12080 1 1.500000e+00 66.279958 -124.000000 -9.084289
320 12080 1 1.500000e+00 68.646942 -124.000000 -4.789192
321 12081 1 1.500000e+00 69.830662 -121.950000 -9.664359
322 12081 1 1.500000e+00 72.197646 -121.950000 -5.322934
323 12082 1 1.500000e+00 73.381366 -119.900000 -10.144652
324 12082 1 1.500000e+00 75.748351 -119.900000 -5.750830
325 12083 1 1.500000e+00 76.932070 -117.850000 -10.510537
326 12083 1 1.500000e+00 79.299055 -117.850000 -6.059113
327 12084 1 1.500000e+00 80.482774 -115.800000 -10.749389
328 12084 1 1.500000e+00 82.849759 -115.800000 -6.236139
329 12085 1 1.500000e+00 84.033478 -113.750000 -10.850833
330 12085 1 1.500000e+00 86.400463 -113.750000 -6.272598
331 12086 1 1.500000e+00 87.584183 -111.700000 -10.806940
332 12086 1 1.500000e+00 89.951167 -111.700000 -6.161708
333 12087 1 1.500000e+00 91.134887 -109.650000 -10.612386
334 12087 1 1.500000e+00 93.501871 -109.650000 -5.899339
335 12088 1 1.500000e+00 94.685591 -107.600000 -10.264559
336 12088 1 1.500000e+00 97.052576 -107.600000 -5.484107
337 12089 1 1.500000e+00 98.236295 -105.550000 -9.763620
338 12089 1 1.500000e+00 100.603280 -105.550000 -4.917408
339 12090 1 1.500000e+00 101.786999 -103.500000 -9.112510
340 12090 1 1.500000e+00 104.153984 -103.500000 -4.203408
341 12091 1 1.500000e+00 105.337703 -101.450000 -8.316911
342 12091 1 1.500000e+00 107.704688 -101.450000 -3.348976
343 12092 1 1.500000e+00 108.888408 -99.400000 -7.385158
344 12092 1 1.500000e+00 111.255392 -99.400000 -2.363576
345 12093 1 1.500000e+00 112.439112 -97.350000 -6.328092
346 12093 1 1.500000e+00 114.806096 -97.350000 -1.259103
347 12094 1 1.500000e+00 115.989816 -95.300000 -5.158886
348 12094 1 1.500000e+00 118.356800 -95.300000 -0.049684
349 12095 1 1.500000e+00 119.540520 -93.250000 -3.892813
350 12095 1 1.500000e+00 121.907505 -93.250000 1.248567
351 12096 1 1.500000e+00 123.091224 -91.200000 -2.546980
352 12270 1 1.500000e+00 27.222212 -142.450000 -2.332059
353 12270 1 1.500000e+00 29.589197 -142.450000 1.888904
354 12271 1 1.500000e+00 30.772916 -140.400000 -2.892962
355 12271 1 1.500000e+00 33.139901 -140.400000 1.297942
356 12272 1 1.500000e+00 34.323620 -138.350000 -3.542911
357 12272 1 1.500000e+00 36.690605 -138.350000 0.624312
358 12273 1 1.500000e+00 37.874324 -136.300000 -4.266038
359 12273 1 1.500000e+00 40.241309 -136.300000 -0.115423
360 12274 1 1.500000e+00 41.425029 -134.250000 -5.044951
361 12274 1 1.500000e+00 43.792013 -134.250000 -0.903316
362 12275 1 1.500000e+00 44.975733 -132.200000 -5.861054
363 12275 1 1.500000e+00 47.342717 -132.200000 -1.720368
364 12276 1 1.500000e+00 48.526437 -130.150000 -6.694897
365 12276 1 1.500000e+00 50.893421 -130.150000 -2.546883
366 12277 1 1.500000e+00 52.077141 -128.100000 -7.526536
367 12277 1 1.500000e+00 54.444126 -128.100000 -3.362832
368 12278 1 1.500000e+00 55.627845 -126.050000 -8.335900
369 12278 1 1.500000e+00 57.994830 -126.050000 -4.148228
370 12279 1 1.500000e+00 59.178549 -124.000000 -9.103172
371 12279 1 1.500000e+00 61.545534 -124.000000 -4.883496
372 12280 1 1.500000e+00 62.729254 -121.950000 -9.809150
373 12280 1 1.500000e+00 65.096238 -121.950000 -5.549843
374 12281 1 1.500000e+00 66.279958 -119.900000 -10.435611
375 12281 1 1.500000e+00 68.646942 -119.900000 -6.129602
376 12282 1 1.500000e+00 69.830662 -117.850000 -10.965650
377 12282 1 1.500000e+00 72.197646 -117.850000 -6.606568
378 12283 1 1.500000e+00 73.381366 -115.800000 -11.383996
379 12283 1 1.500000e+00 75.748351 -115.800000 -6.966303
380 12284 1 1.500000e+00 76.932070 -113.750000 -11.677301
381 12284 1 1.500000e+00 79.299055 -113.750000 -7.196406
382 12285 1 1.500000e+00 80.482774 -111.700000 -11.834395
383 12285 1 1.500000e+00 82.849759 -111.700000 -7.286751
384 12286 1 1.500000e+00 84.033478 -109.650000 -11.846495
385 12286 1 1.500000e+00 86.400463 -109.650000 -7.229684
386 12287 1 1.500000e+00 87.584183 -107.600000 -11.707381
387 12287 1 1.500000e+00 89.951167 -107.600000 -7.020171
388 12288 1 1.500000e+00 91.134887 -105.550000 -11.413518
389 12288 1 1.500000e+00 93.501871 -105.550000 -6.655900
390 12289 1 1.500000e+00 94.685591 -103.500000 -10.964133
391 12289 1 1.500000e+00 97.052576 -103.500000 -6.137342
392 12290 1 1.500000e+00 98.236295 -101.450000 -10.361243
393 12290 1 1.500000e+00 100.603280 -101.450000 -5.467746
394 12291 1 1.500000e+00 101.786999 -99.400000 -9.609625
395 12291 1 1.500000e+00 104.153984 -99.400000 -4.653099
396 12292 1 1.500000e+00 105.337703 -97.350000 -8.716750
397 12292 1 1.500000e+00 107.704688 -97.350000 -3.702027
398 12293 1 1.500000e+00 108.888408 -95.300000 -7.692652
399 12293 1 1.500000e+00 111.255392 -95.300000 -2.625653
400 12294 1 1.500000e+00 112.439112 -93.250000 -6.549767
401 12294 1 1.500000e+00 114.806096 -93.250000 -1.437404
402 12295 1 1.500000e+00 115.989816 -91.200000 -5.302712
403 12295 1 1.500000e+00 118.356800 -91.200000 -0.152788
404 12296 1 1.500000e+00 119.540520 -89.150000 -3.968039
405 12296 1 1.500000e+00 121.907505 -89.150000 1.210885
406 12297 1 1.500000e+00 123.091224 -87.100000 -2.563943
407 12469 1 1.500000e+00 20.120804 -142.450000 -2.274179
408 12469 1 1.500000e+00 22.487788 -142.450000 1.944321
409 12470 1 1.500000e+00 23.671508 -140.400000 -2.733318
410 12470 1 1.500000e+00 26.038492 -140.400000 1.449451
411 12471 1 1.500000e+00 27.222212 -138.350000 -3.298641
412 12471 1 1.500000e+00 29.589197 -138.350000 0.853754
413 12472 1 1.500000e+00 30.772916 -136.300000 -3.956695
414 12472 1 1.500000e+00 33.139901 -136.300000 0.171543
415 12473 1 1.500000e+00 34.323620 -134.250000 -4.692112
416 12473 1 1.500000e+00 36.690605 -134.250000 -0.581083
417 12474 1 1.500000e+00 37.874324 -132.200000 -5.487905
418 12474 1 1.500000e+00 40.241309 -132.200000 -1.386537
419 12475 1 1.500000e+00 41.425029 -130.150000 -6.325774
420 12475 1 1.500000e+00 43.792013 -130.150000 -2.226068
421 12476 1 1.500000e+00 44.975733 -128.100000 -7.186450
422 12476 1 1.500000e+00 47.342717 -128.100000 -3.080111
423 12477 1 1.500000e+00 48.526437 -126.050000 -8.050051
424 12477 1 1.500000e+00 50.893421 -126.050000 -3.928650
425 12478 1 1.500000e+00 52.077141 -124.000000 -8.896448
426 12478 1 1.500000e+00 54.444126 -124.000000 -4.751588
427 12479 1 1.500000e+00 55.627845 -121.950000 -9.705644
428 12479 1 1.500000e+00 57.994830 -121.950000 -5.529122
429 12480 1 1.500000e+00 59.178549 -119.900000 -10.458138
430 12480 1 1.500000e+00 61.545534 -119.900000 -6.242110
431 12481 1 1.500000e+00 62.729254 -117.850000 -11.135296
432 12481 1 1.500000e+00 65.096238 -117.850000 -6.872429
433 12482 1 1.500000e+00 66.279958 -115.800000 -11.719690
434 12482 1 1.500000e+00 68.646942 -115.800000 -7.403311
435 12483 1 1.500000e+00 69.830662 -113.750000 -12.195430
436 12483 1 1.500000e+00 72.197646 -113.750000 -7.819662
437 12484 1 1.500000e+00 73.381366 -111.700000 -12.548461
438 12484 1 1.500000e+00 75.748351 -111.700000 -8.108339
439 12485 1 1.500000e+00 76.932070 -109.650000 -12.766826
440 12485 1 1.500000e+00 79.299055 -109.650000 -8.258409
441 12486 1 1.500000e+00 80.482774 -107.600000 -12.840895
442 12486 1 1.500000e+00 82.849759 -107.600000 -8.261347
443 12487 1 1.500000e+00 84.033478 -105.550000 -12.763554
444 12487 1 1.500000e+00 86.400463 -105.550000 -8.111213
445 12488 1 1.500000e+00 87.584183 -103.500000 -12.530339
446 12488 1 1.500000e+00 89.951167 -103.500000 -7.804763
447 12489 1 1.500000e+00 91.134887 -101.450000 -12.139533
448 12489 1 1.500000e+00 93.501871 -101.450000 -7.341524
449 12490 1 1.500000e+00 94.685591 -99.400000 -11.592209
450 12490 1 1.500000e+00 97.052576 -99.400000 -6.723814
451 12491 1 1.500000e+00 98.236295 -97.350000 -10.892222
452 12491 1 1.500000e+00 100.603280 -97.350000 -5.956712
453 12492 1 1.500000e+00 101.786999 -95.300000 -10.046148
454 12492 1 1.500000e+00 104.153984 -95.300000 -5.047977
455 12493 1 1.500000e+00 105.337703 -93.250000 -9.063184
456 12493 1 1.500000e+00 107.704688 -93.250000 -4.007923
457 12494 1 1.500000e+00 108.888408 -91.200000 -7.954989
458 12494 1 1.500000e+00 111.255392 -91.200000 -2.849241
459 12495 1 1.500000e+00 112.439112 -89.150000 -6.735485
460 12495 1 1.500000e+00 114.806096 -89.150000 -1.586785
461 12496 1 1.500000e+00 115.989816 -87.100000 -5.420622
462 12496 1 1.500000e+00 118.356800 -87.100000 -0.237313
463 12497 1 1.500000e+00 119.540520 -85.050000 -4.028095
464 12497 1 1.500000e+00 121.907505 -85.050000 1.180802
465 12498 1 1.500000e+00 123.091224 -83.000000 -2.577042
466 12668 1 1.500000e+00 13.019395 -142.450000 -2.210182
467 12668 1 1.500000e+00 15.386380 -142.450000 2.006499
468 12669 1 1.500000e+00 16.570099 -140.400000 -2.552800
469 12669 1 1.500000e+00 18.937084 -140.400000 1.623627
470 12670 1 1.500000e+00 20.120804 -138.350000 -3.015328
471 12670 1 1.500000e+00 22.487788 -138.350000 1.125009
472 12671 1 1.500000e+00 23.671508 -136.300000 -3.587157
473 12671 1 1.500000e+00 26.038492 -136.300000 0.522249
474 12672 1 1.500000e+00 27.222212 -134.250000 -4.255443
475 12672 1 1.500000e+00 29.589197 -134.250000 -0.170921
476 12673 1 1.500000e+00 30.772916 -132.200000 -5.005348
477 12673 1 1.500000e+00 33.139901 -132.200000 -0.938888
478 12674 1 1.500000e+00 34.323620 -130.150000 -5.820314
479 12674 1 1.500000e+00 36.690605 -130.150000 -1.764452
480 12675 1 1.500000e+00 37.874324 -128.100000 -6.682365
481 12675 1 1.500000e+00 40.241309 -128.100000 -2.629140
482 12676 1 1.500000e+00 41.425029 -126.050000 -7.572445
483 12676 1 1.500000e+00 43.792013 -126.050000 -3.513549
484 12677 1 1.500000e+00 44.975733 -124.000000 -8.470764
485 12677 1 1.500000e+00 47.342717 -124.000000 -4.397706
486 12678 1 1.500000e+00 48.526437 -121.950000 -9.357169
487 12678 1 1.500000e+00 50.893421 -121.950000 -5.261437
488 12679 1 1.500000e+00 52.077141 -119.900000 -10.211511
489 12679 1 1.500000e+00 54.444126 -119.900000 -6.084739
490 12680 1 1.500000e+00 55.627845 -117.850000 -11.014022
491 12680 1 1.500000e+00 57.994830 -117.850000 -6.848151
492 12681 1 1.500000e+00 59.178549 -115.800000 -11.745681
493 12681 1 1.500000e+00 61.545534 -115.800000 -7.533118
494 12682 1 1.500000e+00 62.729254 -113.750000 -12.388565
495 12682 1 1.500000e+00 65.096238 -113.750000 -8.122334
496 12683 1 1.500000e+00 66.279958 -111.700000 -12.926187
497 12683 1 1.500000e+00 68.646942 -111.700000 -8.600066
498 12684 1 1.500000e+00 69.830662 -109.650000 -13.343798
499 12684 1 1.500000e+00 72.197646 -109.650000 -8.952448
500 12685 1 1.500000e+00 73.381366 -107.600000 -13.628671
501 12685 1 1.500000e+00 75.748351 -107.600000 -9.167744
502 12686 1 1.500000e+00 76.932070 -105.550000 -13.770337
503 12686 1 1.500000e+00 79.299055 -105.550000 -9.236571
504 12687 1 1.500000e+00 80.482774 -103.500000 -13.760787
505 12687 1 1.500000e+00 82.849759 -103.500000 -9.152080
506 12688 1 1.500000e+00 84.033478 -101.450000 -13.594627
507 12688 1 1.500000e+00 86.400463 -101.450000 -8.910087
508 12689 1 1.500000e+00 87.584183 -99.400000 -13.269188
509 12689 1 1.500000e+00 89.951167 -99.400000 -8.509168
510 12690 1 1.500000e+00 91.134887 -97.350000 -12.784586
511 12690 1 1.500000e+00 93.501871 -97.350000 -7.950690
512 12691 1 1.500000e+00 94.685591 -95.300000 -12.143730
513 12691 1 1.500000e+00 97.052576 -95.300000 -7.238803
514 12692 1 1.500000e+00 98.236295 -93.250000 -11.352281
515 12692 1 1.500000e+00 100.603280 -93.250000 -6.380370
516 12693 1 1.500000e+00 101.786999 -91.200000 -10.418563
517 12693 1 1.500000e+00 104.153984 -91.200000 -5.384864
518 12694 1 1.500000e+00 105.337703 -89.150000 -9.353425
519 12694 1 1.500000e+00 107.704688 -89.150000 -4.264201
520 12695 1 1.500000e+00 108.888408 -87.100000 -8.170054
521 12695 1 1.500000e+00 111.255392 -87.100000 -3.032541
522 12696 1 1.500000e+00 112.439112 -85.050000 -6.883751
523 12696 1 1.500000e+00 114.806096 -85.050000 -1.706041