In2Se3_bronze from Matlab for Lammps

300 atoms

2 atom types

-38.320985 38.320985 xlo xhi
-2.150000 1.900000 ylo yhi
-38.320985 38.320985 zlo zhi

Masses

1 1.148180e+02
2 7.896000e+01

Atoms

1 1 5.513656 -1.150000 31.269474
2 1 2.214902 0.900000 31.674511
3 1 11.894459 -1.150000 29.439808
4 1 8.752002 0.900000 30.521843
5 1 17.755417 -1.150000 26.323480
6 1 14.906598 0.900000 28.035224
7 1 22.840378 -1.150000 22.056690
8 1 20.409704 0.900000 24.323331
9 1 26.927104 -1.150000 16.825917
10 1 25.020808 0.900000 19.548392
11 1 29.836987 -1.150000 10.859771
12 1 28.538382 0.900000 13.919094
13 1 31.442851 -1.150000 4.419000
14 1 30.808692 0.900000 7.681465
15 1 31.674511 -1.150000 -2.214902
16 1 31.732515 0.900000 1.108119
17 1 30.521843 -1.150000 -8.752002
18 1 31.269474 0.900000 -5.513656
19 1 28.035224 -1.150000 -14.906598
20 1 29.439808 0.900000 -11.894459
21 1 24.323331 -1.150000 -20.409704
22 1 26.323480 0.900000 -17.755417
23 1 19.548392 -1.150000 -25.020808
24 1 22.056690 0.900000 -22.840378
25 1 13.919094 -1.150000 -28.538382
26 1 16.825917 0.900000 -26.927104
27 1 7.681465 -1.150000 -30.808692
28 1 10.859771 0.900000 -29.836987
29 1 1.108119 -1.150000 -31.732515
30 1 4.419000 0.900000 -31.442851
31 1 -5.513656 -1.150000 -31.269474
32 1 -2.214902 0.900000 -31.674511
33 1 -11.894459 -1.150000 -29.439808
34 1 -8.752002 0.900000 -30.521843
35 1 -17.755417 -1.150000 -26.323480
36 1 -14.906598 0.900000 -28.035224
37 1 -22.840378 -1.150000 -22.056690
38 1 -20.409704 0.900000 -24.323331
39 1 -26.927104 -1.150000 -16.825917
40 1 -25.020808 0.900000 -19.548392
41 1 -29.836987 -1.150000 -10.859771
42 1 -28.538382 0.900000 -13.919094
43 1 -31.442851 -1.150000 -4.419000
44 1 -30.808692 0.900000 -7.681465
45 1 -31.674511 -1.150000 2.214902
46 1 -31.732515 0.900000 -1.108119
47 1 -30.521843 -1.150000 8.752002
48 1 -31.269474 0.900000 5.513656
49 1 -28.035224 -1.150000 14.906598
50 1 -29.439808 0.900000 11.894459
51 1 -24.323331 -1.150000 20.409704
52 1 -26.323480 0.900000 17.755417
53 1 -19.548392 -1.150000 25.020808
54 1 -22.056690 0.900000 22.840378
55 1 -13.919094 -1.150000 28.538382
56 1 -16.825917 0.900000 26.927104
57 1 -7.681465 -1.150000 30.808692
58 1 -10.859771 0.900000 29.836987
59 1 -1.108119 -1.150000 31.732515
60 1 -4.419000 0.900000 31.442851
61 1 1.255892 -1.150000 35.968506
62 1 8.706721 -1.150000 34.921393
63 1 5.008745 0.900000 35.640190
64 1 15.777024 -1.150000 32.348048
65 1 12.309304 0.900000 33.819990
66 1 22.157795 -1.150000 28.360938
67 1 19.071887 0.900000 30.521694
68 1 27.570165 -1.150000 23.134319
69 1 25.000938 0.900000 25.889453
70 1 31.777586 -1.150000 16.896619
71 1 29.837328 0.900000 20.125719
72 1 34.596174 -1.150000 9.920455
73 1 33.369683 0.900000 13.482395
74 1 35.902743 -1.150000 2.510721
75 1 35.443623 0.900000 6.249825
76 1 35.640190 -1.150000 -5.008745
77 1 35.968506 0.900000 -1.255892
78 1 33.819990 -1.150000 -12.309304
79 1 34.921393 0.900000 -8.706721
80 1 30.521694 -1.150000 -19.071887
81 1 32.348048 0.900000 -15.777024
82 1 25.889453 -1.150000 -25.000938
83 1 28.360938 0.900000 -22.157795
84 1 20.125719 -1.150000 -29.837328
85 1 23.134319 0.900000 -27.570165
86 1 13.482395 -1.150000 -33.369683
87 1 16.896619 0.900000 -31.777586
88 1 6.249825 -1.150000 -35.443623
89 1 9.920455 0.900000 -34.596174
90 1 -1.255892 -1.150000 -35.968506
91 1 2.510721 0.900000 -35.902743
92 1 -8.706721 -1.150000 -34.921393
93 1 -5.008745 0.900000 -35.640190
94 1 -15.777024 -1.150000 -32.348048
95 1 -12.309304 0.900000 -33.819990
96 1 -22.157795 -1.150000 -28.360938
97 1 -19.071887 0.900000 -30.521694
98 1 -27.570165 -1.150000 -23.134319
99 1 -25.000938 0.900000 -25.889453
100 1 -31.777586 -1.150000 -16.896619
101 1 -29.837328 0.900000 -20.125719
102 1 -34.596174 -1.150000 -9.920455
103 1 -33.369683 0.900000 -13.482395
104 1 -35.902743 -1.150000 -2.510721
105 1 -35.443623 0.900000 -6.249825
106 1 -35.640190 -1.150000 5.008745
107 1 -35.968506 0.900000 1.255892
108 1 -33.819990 -1.150000 12.309304
109 1 -34.921393 0.900000 8.706721
110 1 -30.521694 -1.150000 19.071887
111 1 -32.348048 0.900000 15.777024
112 1 -25.889453 -1.150000 25.000938
113 1 -28.360938 0.900000 22.157795
114 1 -20.125719 -1.150000 29.837328
115 1 -23.134319 0.900000 27.570165
116 1 -13.482395 -1.150000 33.369683
117 1 -16.896619 0.900000 31.777586
118 1 -6.249825 -1.150000 35.443623
119 1 -9.920455 0.900000 34.596174
120 1 -2.510721 0.900000 35.902743
121 2 3.187526 -1.150000 30.325028
122 2 0.000236 0.900000 30.492091
123 2 9.422799 -1.150000 28.999629
124 2 6.339893 0.900000 29.825717
125 2 15.246250 -1.150000 26.406807
126 2 12.402467 0.900000 27.855815
127 2 20.403367 -1.150000 22.659882
128 2 17.922993 0.900000 24.668481
129 2 24.668759 -1.150000 17.922610
130 2 22.660198 0.900000 20.403016
131 2 27.856007 -1.150000 12.402035
132 2 26.407044 0.900000 15.245841
133 2 29.825815 -1.150000 6.339431
134 2 28.999775 0.900000 9.422350
135 2 30.492091 -1.150000 -0.000236
136 2 30.325077 0.900000 3.187056
137 2 29.825717 -1.150000 -6.339893
138 2 30.325028 0.900000 -3.187526
139 2 27.855815 -1.150000 -12.402467
140 2 28.999629 0.900000 -9.422799
141 2 24.668481 -1.150000 -17.922993
142 2 26.406807 0.900000 -15.246250
143 2 20.403016 -1.150000 -22.660198
144 2 22.659882 0.900000 -20.403367
145 2 15.245841 -1.150000 -26.407044
146 2 17.922610 0.900000 -24.668759
147 2 9.422350 -1.150000 -28.999775
148 2 12.402035 0.900000 -27.856007
149 2 3.187056 -1.150000 -30.325077
150 2 6.339431 0.900000 -29.825815
151 2 -3.187526 -1.150000 -30.325028
152 2 -0.000236 0.900000 -30.492091
153 2 -9.422799 -1.150000 -28.999629
154 2 -6.339893 0.900000 -29.825717
155 2 -15.246250 -1.150000 -26.406807
156 2 -12.402467 0.900000 -27.855815
157 2 -20.403367 -1.150000 -22.659882
158 2 -17.922993 0.900000 -24.668481
159 2 -24.668759 -1.150000 -17.922610
160 2 -22.660198 0.900000 -20.403016
161 2 -27.856007 -1.150000 -12.402035
162 2 -26.407044 0.900000 -15.245841
163 2 -29.825815 -1.150000 -6.339431
164 2 -28.999775 0.900000 -9.422350
165 2 -30.492091 -1.150000 0.000236
166 2 -30.325077 0.900000 -3.187056
167 2 -29.825717 -1.150000 6.339893
168 2 -30.325028 0.900000 3.187526
169 2 -27.855815 -1.150000 12.402467
170 2 -28.999629 0.900000 9.422799
171 2 -24.668481 -1.150000 17.922993
172 2 -26.406807 0.900000 15.246250
173 2 -20.403016 -1.150000 22.660198
174 2 -22.659882 0.900000 20.403367
175 2 -15.245841 -1.150000 26.407044
176 2 -17.922610 0.900000 24.668759
177 2 -9.422350 -1.150000 28.999775
178 2 -12.402035 0.900000 27.856007
179 2 -3.187056 -1.150000 30.325077
180 2 -6.339431 0.900000 29.825815
181 2 5.957944 -1.150000 33.789398
182 2 2.393352 0.900000 34.227071
183 2 12.852959 -1.150000 31.812292
184 2 9.457259 0.900000 32.981521
185 2 19.186239 -1.150000 28.444837
186 2 16.107839 0.900000 30.294521
187 2 24.680987 -1.150000 23.834206
188 2 22.054429 0.900000 26.283505
189 2 29.097059 -1.150000 18.181905
190 2 27.037135 0.900000 21.123774
191 2 32.241449 -1.150000 11.734968
192 2 30.838189 0.900000 15.040832
193 2 33.976733 -1.150000 4.775157
194 2 33.291465 0.900000 8.300534
195 2 34.227071 -1.150000 -2.393352
196 2 34.289745 0.900000 1.197463
197 2 32.981521 -1.150000 -9.457259
198 2 33.789398 0.900000 -5.957944
199 2 30.294521 -1.150000 -16.107839
200 2 31.812292 0.900000 -12.852959
201 2 26.283505 -1.150000 -22.054429
202 2 28.444837 0.900000 -19.186239
203 2 21.123774 -1.150000 -27.037135
204 2 23.834206 0.900000 -24.680987
205 2 15.040832 -1.150000 -30.838189
206 2 18.181905 0.900000 -29.097059
207 2 8.300534 -1.150000 -33.291465
208 2 11.734968 0.900000 -32.241449
209 2 1.197463 -1.150000 -34.289745
210 2 4.775157 0.900000 -33.976733
211 2 -5.957944 -1.150000 -33.789398
212 2 -2.393352 0.900000 -34.227071
213 2 -12.852959 -1.150000 -31.812292
214 2 -9.457259 0.900000 -32.981521
215 2 -19.186239 -1.150000 -28.444837
216 2 -16.107839 0.900000 -30.294521
217 2 -24.680987 -1.150000 -23.834206
218 2 -22.054429 0.900000 -26.283505
219 2 -29.097059 -1.150000 -18.181905
220 2 -27.037135 0.900000 -21.123774
221 2 -32.241449 -1.150000 -11.734968
222 2 -30.838189 0.900000 -15.040832
223 2 -33.976733 -1.150000 -4.775157
224 2 -33.291465 0.900000 -8.300534
225 2 -34.227071 -1.150000 2.393352
226 2 -34.289745 0.900000 -1.197463
227 2 -32.981521 -1.150000 9.457259
228 2 -33.789398 0.900000 5.957944
229 2 -30.294521 -1.150000 16.107839
230 2 -31.812292 0.900000 12.852959
231 2 -26.283505 -1.150000 22.054429
232 2 -28.444837 0.900000 19.186239
233 2 -21.123774 -1.150000 27.037135
234 2 -23.834206 0.900000 24.680987
235 2 -15.040832 -1.150000 30.838189
236 2 -18.181905 0.900000 29.097059
237 2 -8.300534 -1.150000 33.291465
238 2 -11.734968 0.900000 32.241449
239 2 -1.197463 -1.150000 34.289745
240 2 -4.775157 0.900000 33.976733
241 2 3.900989 -1.150000 37.116549
242 2 11.532707 -1.150000 35.494402
243 2 7.759354 0.900000 36.505456
244 2 18.660391 -1.150000 32.320980
245 2 15.179705 0.900000 34.094464
246 2 24.972526 -1.150000 27.734975
247 2 21.936630 0.900000 30.193380
248 2 30.193242 -1.150000 21.936819
249 2 27.734818 0.900000 24.972701
250 2 34.094369 -1.150000 15.179919
251 2 32.320863 0.900000 18.660594
252 2 36.505408 -1.150000 7.759584
253 2 35.494330 0.900000 11.532930
254 2 37.320985 -1.150000 0.000117
255 2 37.116525 0.900000 3.901222
256 2 36.505456 -1.150000 -7.759354
257 2 37.116549 0.900000 -3.900989
258 2 34.094464 -1.150000 -15.179705
259 2 35.494402 0.900000 -11.532707
260 2 30.193380 -1.150000 -21.936630
261 2 32.320980 0.900000 -18.660391
262 2 24.972701 -1.150000 -27.734818
263 2 27.734975 0.900000 -24.972526
264 2 18.660594 -1.150000 -32.320863
265 2 21.936819 0.900000 -30.193242
266 2 11.532930 -1.150000 -35.494330
267 2 15.179919 0.900000 -34.094369
268 2 3.901222 -1.150000 -37.116525
269 2 7.759584 0.900000 -36.505408
270 2 -3.900989 -1.150000 -37.116549
271 2 0.000117 0.900000 -37.320985
272 2 -11.532707 -1.150000 -35.494402
273 2 -7.759354 0.900000 -36.505456
274 2 -18.660391 -1.150000 -32.320980
275 2 -15.179705 0.900000 -34.094464
276 2 -24.972526 -1.150000 -27.734975
277 2 -21.936630 0.900000 -30.193380
278 2 -30.193242 -1.150000 -21.936819
279 2 -27.734818 0.900000 -24.972701
280 2 -34.094369 -1.150000 -15.179919
281 2 -32.320863 0.900000 -18.660594
282 2 -36.505408 -1.150000 -7.759584
283 2 -35.494330 0.900000 -11.532930
284 2 -37.320985 -1.150000 -0.000117
285 2 -37.116525 0.900000 -3.901222
286 2 -36.505456 -1.150000 7.759354
287 2 -37.116549 0.900000 3.900989
288 2 -34.094464 -1.150000 15.179705
289 2 -35.494402 0.900000 11.532707
290 2 -30.193380 -1.150000 21.936630
291 2 -32.320980 0.900000 18.660391
292 2 -24.972701 -1.150000 27.734818
293 2 -27.734975 0.900000 24.972526
294 2 -18.660594 -1.150000 32.320863
295 2 -21.936819 0.900000 30.193242
296 2 -11.532930 -1.150000 35.494330
297 2 -15.179919 0.900000 34.094369
298 2 -3.901222 -1.150000 37.116525
299 2 -7.759584 0.900000 36.505408
300 2 -0.000117 0.900000 37.320985
