In2Se3_bronze from Matlab for Lammps

250 atoms

2 atom types

-32.607378 32.607378 xlo xhi
-2.000000 2.050000 ylo yhi
-32.669864 32.669864 zlo zhi

Masses

1 1.148180e+02
2 7.896000e+01

Atoms

1 1 5.426652 -1.000000 25.530371
2 1 2.184058 1.050000 26.009197
3 1 11.605309 -1.000000 23.378734
4 1 8.583666 1.050000 24.648917
5 1 17.054762 -1.000000 19.758125
6 1 14.443930 1.050000 21.739855
7 1 21.432601 -1.000000 14.896041
8 1 19.396630 1.050000 17.464798
9 1 24.463751 -1.000000 9.097983
10 1 23.130568 1.050000 12.092364
11 1 25.957754 -1.000000 2.728265
12 1 25.411127 1.050000 5.960121
13 1 25.820735 -1.000000 -3.812879
14 1 26.095011 1.050000 -0.546617
15 1 24.061305 -1.000000 -10.114446
16 1 25.139251 1.050000 -7.019009
17 1 20.790014 -1.000000 -15.780485
18 1 22.603898 1.050000 -13.050372
19 1 16.212411 -1.000000 -20.454979
20 1 18.648260 1.050000 -18.261731
21 1 10.616122 -1.000000 -23.844210
22 1 13.520882 1.050000 -22.325639
23 1 4.352783 -1.000000 -25.735223
24 1 7.543938 1.050000 -24.986745
25 1 -2.184058 -1.000000 -26.009197
26 1 1.092981 1.050000 -26.077841
27 1 -8.583666 -1.000000 -24.648917
28 1 -5.426652 1.050000 -25.530371
29 1 -14.443930 -1.000000 -21.739855
30 1 -11.605309 1.050000 -23.378734
31 1 -19.396630 -1.000000 -17.464798
32 1 -17.054762 1.050000 -19.758125
33 1 -23.130568 -1.000000 -12.092364
34 1 -21.432601 1.050000 -14.896041
35 1 -25.411127 -1.000000 -5.960121
36 1 -24.463751 1.050000 -9.097983
37 1 -26.095011 -1.000000 0.546617
38 1 -25.957754 1.050000 -2.728265
39 1 -25.139251 -1.000000 7.019009
40 1 -25.820735 1.050000 3.812879
41 1 -22.603898 -1.000000 13.050372
42 1 -24.061305 1.050000 10.114446
43 1 -18.648260 -1.000000 18.261731
44 1 -20.790014 1.050000 15.780485
45 1 -13.520882 -1.000000 22.325639
46 1 -16.212411 1.050000 20.454979
47 1 -7.543938 -1.000000 24.986745
48 1 -10.616122 1.050000 23.844210
49 1 -1.092981 -1.000000 26.077841
50 1 -4.352783 1.050000 25.735223
51 1 1.270321 -1.000000 30.312698
52 1 8.768873 -1.000000 29.044453
53 1 5.059492 1.050000 29.914460
54 1 15.716444 -1.000000 25.951238
55 1 12.339963 1.050000 27.716397
56 1 21.676493 -1.000000 21.227411
57 1 18.845068 1.050000 23.776812
58 1 26.274529 -1.000000 15.169788
59 1 24.166068 1.050000 18.343242
60 1 29.221639 -1.000000 8.158992
61 1 27.968625 1.050000 11.757098
62 1 30.332647 -1.000000 0.635536
63 1 30.013811 1.050000 4.432213
64 1 29.537742 -1.000000 -6.927853
65 1 30.173118 1.050000 -3.171164
66 1 26.886873 -1.000000 -14.055940
67 1 28.436538 1.050000 -10.575286
68 1 22.546602 -1.000000 -20.300840
69 1 24.913185 1.050000 -17.314923
70 1 16.789646 -1.000000 -25.270163
71 1 19.824446 1.050000 -22.966600
72 1 9.977734 -1.000000 -28.651670
73 1 13.490063 1.050000 -27.175201
74 1 2.538885 -1.000000 -30.232886
75 1 6.308050 1.050000 -29.676285
76 1 -5.059492 -1.000000 -29.914460
77 1 -1.270321 1.050000 -30.312698
78 1 -12.339963 -1.000000 -27.716397
79 1 -8.768873 1.050000 -29.044453
80 1 -18.845068 -1.000000 -23.776812
81 1 -15.716444 1.050000 -25.951238
82 1 -24.166068 -1.000000 -18.343242
83 1 -21.676493 1.050000 -21.227411
84 1 -27.968625 -1.000000 -11.757098
85 1 -26.274529 1.050000 -15.169788
86 1 -30.013811 -1.000000 -4.432213
87 1 -29.221639 1.050000 -8.158992
88 1 -30.173118 -1.000000 3.171164
89 1 -30.332647 1.050000 -0.635536
90 1 -28.436538 -1.000000 10.575286
91 1 -29.537742 1.050000 6.927853
92 1 -24.913185 -1.000000 17.314923
93 1 -26.886873 1.050000 14.055940
94 1 -19.824446 -1.000000 22.966600
95 1 -22.546602 1.050000 20.300840
96 1 -13.490063 -1.000000 27.175201
97 1 -16.789646 1.050000 25.270163
98 1 -6.308050 -1.000000 29.676285
99 1 -9.977734 1.050000 28.651670
100 1 -2.538885 1.050000 30.232886
101 2 3.113628 -1.000000 24.645062
102 2 0.000231 1.050000 24.840970
103 2 9.144786 -1.000000 23.096465
104 2 6.177922 1.050000 24.060488
105 2 14.601343 -1.000000 20.096631
106 2 11.967431 1.050000 21.768197
107 2 19.140444 -1.000000 15.834052
108 2 17.004982 1.050000 18.108130
109 2 22.476880 -1.000000 10.576562
110 2 20.974048 1.050000 13.310262
111 2 24.401011 -1.000000 4.654507
112 2 23.625238 1.050000 7.676062
113 2 24.791937 -1.000000 -1.560008
114 2 24.791966 1.050000 1.559547
115 2 23.625095 -1.000000 -7.676502
116 2 24.400925 1.050000 -4.654961
117 2 20.973801 -1.000000 -13.310652
118 2 22.476683 1.050000 -10.576980
119 2 17.004646 -1.000000 -18.108446
120 2 19.140149 1.050000 -15.834408
121 2 11.967026 -1.000000 -21.768419
122 2 14.600969 1.050000 -20.096903
123 2 6.177474 -1.000000 -24.060603
124 2 9.144356 1.050000 -23.096635
125 2 -0.000231 -1.000000 -24.840970
126 2 3.113170 1.050000 -24.645120
127 2 -6.177922 -1.000000 -24.060488
128 2 -3.113628 1.050000 -24.645062
129 2 -11.967431 -1.000000 -21.768197
130 2 -9.144786 1.050000 -23.096465
131 2 -17.004982 -1.000000 -18.108130
132 2 -14.601343 1.050000 -20.096631
133 2 -20.974048 -1.000000 -13.310262
134 2 -19.140444 1.050000 -15.834052
135 2 -23.625238 -1.000000 -7.676062
136 2 -22.476880 1.050000 -10.576562
137 2 -24.791966 -1.000000 -1.559547
138 2 -24.401011 1.050000 -4.654507
139 2 -24.400925 -1.000000 4.654961
140 2 -24.791937 1.050000 1.560008
141 2 -22.476683 -1.000000 10.576980
142 2 -23.625095 1.050000 7.676502
143 2 -19.140149 -1.000000 15.834408
144 2 -20.973801 1.050000 13.310652
145 2 -14.600969 -1.000000 20.096903
146 2 -17.004646 1.050000 18.108446
147 2 -9.144356 -1.000000 23.096635
148 2 -11.967026 1.050000 21.768419
149 2 -3.113170 -1.000000 24.645120
150 2 -6.177474 1.050000 24.060603
151 2 5.958613 -1.000000 28.033254
152 2 2.398129 1.050000 28.559016
153 2 12.742999 -1.000000 25.670691
154 2 9.425126 1.050000 27.065392
155 2 18.726696 -1.000000 21.695144
156 2 15.859907 1.050000 23.871149
157 2 23.533725 -1.000000 16.356412
158 2 21.298153 1.050000 19.176994
159 2 26.862044 -1.000000 9.989946
160 2 25.398157 1.050000 13.277879
161 2 28.502522 -1.000000 2.995774
162 2 27.902301 1.050000 6.544465
163 2 28.352082 -1.000000 -4.186632
164 2 28.653241 1.050000 -0.600161
165 2 26.420176 -1.000000 -11.105978
166 2 27.603793 1.050000 -7.707078
167 2 22.828193 -1.000000 -17.327493
168 2 24.819897 1.050000 -14.329730
169 2 17.801831 -1.000000 -22.460259
170 2 20.476475 1.050000 -20.051992
171 2 11.656914 -1.000000 -26.181764
172 2 14.846441 1.050000 -24.514314
173 2 4.779551 -1.000000 -28.258173
174 2 8.283551 1.050000 -27.436312
175 2 -2.398129 -1.000000 -28.559016
176 2 1.200175 1.050000 -28.634385
177 2 -9.425126 -1.000000 -27.065392
178 2 -5.958613 1.050000 -28.033254
179 2 -15.859907 -1.000000 -23.871149
180 2 -12.742999 1.050000 -25.670691
181 2 -21.298153 -1.000000 -19.176994
182 2 -18.726696 1.050000 -21.695144
183 2 -25.398157 -1.000000 -13.277879
184 2 -23.533725 1.050000 -16.356412
185 2 -27.902301 -1.000000 -6.544465
186 2 -26.862044 1.050000 -9.989946
187 2 -28.653241 -1.000000 0.600161
188 2 -28.502522 1.050000 -2.995774
189 2 -27.603793 -1.000000 7.707078
190 2 -28.352082 1.050000 4.186632
191 2 -24.819897 -1.000000 14.329730
192 2 -26.420176 1.050000 11.105978
193 2 -20.476475 -1.000000 20.051992
194 2 -22.828193 1.050000 17.327493
195 2 -14.846441 -1.000000 24.514314
196 2 -17.801831 1.050000 22.460259
197 2 -8.283551 -1.000000 27.436312
198 2 -11.656914 1.050000 26.181764
199 2 -1.200175 -1.000000 28.634385
200 2 -4.779551 1.050000 28.258173
201 2 3.969168 -1.000000 31.420153
202 2 11.658343 -1.000000 29.445939
203 2 7.875859 1.050000 30.674927
204 2 18.614982 -1.000000 25.621528
205 2 15.256969 1.050000 27.752571
206 2 24.401973 -1.000000 20.187223
207 2 21.679427 1.050000 23.086419
208 2 28.655699 -1.000000 13.484480
209 2 26.739687 1.050000 16.969662
210 2 31.108881 -1.000000 5.934458
211 2 30.119794 1.050000 9.786640
212 2 31.607378 -1.000000 -1.988448
213 2 31.607363 1.050000 1.988686
214 2 30.119867 -1.000000 -9.786413
215 2 31.108926 1.050000 -5.934223
216 2 26.739814 -1.000000 -16.969461
217 2 28.655800 1.050000 -13.484264
218 2 21.679601 -1.000000 -23.086255
219 2 24.402126 1.050000 -20.187039
220 2 15.257178 -1.000000 -27.752456
221 2 18.615176 1.050000 -25.621388
222 2 7.876091 -1.000000 -30.674867
223 2 11.658565 1.050000 -29.445851
224 2 0.000119 -1.000000 -31.669864
225 2 3.969405 1.050000 -31.420123
226 2 -7.875859 -1.000000 -30.674927
227 2 -3.969168 1.050000 -31.420153
228 2 -15.256969 -1.000000 -27.752571
229 2 -11.658343 1.050000 -29.445939
230 2 -21.679427 -1.000000 -23.086419
231 2 -18.614982 1.050000 -25.621528
232 2 -26.739687 -1.000000 -16.969662
233 2 -24.401973 1.050000 -20.187223
234 2 -30.119794 -1.000000 -9.786640
235 2 -28.655699 1.050000 -13.484480
236 2 -31.607363 -1.000000 -1.988686
237 2 -31.108881 1.050000 -5.934458
238 2 -31.108926 -1.000000 5.934223
239 2 -31.607378 1.050000 1.988448
240 2 -28.655800 -1.000000 13.484264
241 2 -30.119867 1.050000 9.786413
242 2 -24.402126 -1.000000 20.187039
243 2 -26.739814 1.050000 16.969461
244 2 -18.615176 -1.000000 25.621388
245 2 -21.679601 1.050000 23.086255
246 2 -11.658565 -1.000000 29.445851
247 2 -15.257178 1.050000 27.752456
248 2 -3.969405 -1.000000 31.420123
249 2 -7.876091 1.050000 30.674867
250 2 -0.000119 1.050000 31.669864
