In2Se3_bronze from Matlab for Lammps

24500 atoms

2 atom types

-124.274539 124.274383 xlo xhi
-143.505900 143.500000 ylo yhi
-24.389523 24.389526 zlo zhi

Masses

1 1.148180e+02
2 7.896000e+01

Atoms

1 9683 1 1.500000e+00 119.540520 -142.450000 -2.138771
2 9683 1 1.500000e+00 121.907505 -142.450000 2.127189
3 9684 1 1.500000e+00 123.091224 -140.400000 -2.124456
4 9882 1 1.500000e+00 112.439112 -142.450000 -2.219386
5 9882 1 1.500000e+00 114.806096 -142.450000 2.045694
6 9883 1 1.500000e+00 115.989816 -140.400000 -2.365873
7 9883 1 1.500000e+00 118.356800 -140.400000 1.952535
8 9884 1 1.500000e+00 119.540520 -138.350000 -2.352536
9 9884 1 1.500000e+00 121.907505 -138.350000 2.020111
10 9885 1 1.500000e+00 123.091224 -136.300000 -2.177795
11 10081 1 1.500000e+00 105.337703 -142.450000 -2.295645
12 10081 1 1.500000e+00 107.704688 -142.450000 1.967702
13 10082 1 1.500000e+00 108.888408 -140.400000 -2.598226
14 10082 1 1.500000e+00 111.255392 -140.400000 1.716311
15 10083 1 1.500000e+00 112.439112 -138.350000 -2.747127
16 10083 1 1.500000e+00 114.806096 -138.350000 1.621210
17 10084 1 1.500000e+00 115.989816 -136.300000 -2.736614
18 10084 1 1.500000e+00 118.356800 -136.300000 1.686762
19 10085 1 1.500000e+00 119.540520 -134.250000 -2.564137
20 10085 1 1.500000e+00 121.907505 -134.250000 1.914118
21 10086 1 1.500000e+00 123.091224 -132.200000 -2.230377
22 10280 1 1.500000e+00 98.236295 -142.450000 -2.365098
23 10280 1 1.500000e+00 100.603280 -142.450000 1.895720
24 10281 1 1.500000e+00 101.786999 -140.400000 -2.814048
25 10281 1 1.500000e+00 104.153984 -140.400000 1.494177
26 10282 1 1.500000e+00 105.337703 -138.350000 -3.120402
27 10282 1 1.500000e+00 107.704688 -138.350000 1.239456
28 10283 1 1.500000e+00 108.888408 -136.300000 -3.274455
29 10283 1 1.500000e+00 111.255392 -136.300000 1.139964
30 10284 1 1.500000e+00 112.439112 -134.250000 -3.269529
31 10284 1 1.500000e+00 114.806096 -134.250000 1.201022
32 10285 1 1.500000e+00 115.989816 -132.200000 -3.102100
33 10285 1 1.500000e+00 118.356800 -132.200000 1.424758
34 10286 1 1.500000e+00 119.540520 -130.150000 -2.771871
35 10286 1 1.500000e+00 121.907505 -130.150000 1.810061
36 10287 1 1.500000e+00 123.091224 -128.100000 -2.281781
37 10479 1 1.500000e+00 91.134887 -142.450000 -2.425513
38 10479 1 1.500000e+00 93.501871 -142.450000 1.832061
39 10480 1 1.500000e+00 94.685591 -140.400000 -3.006403
40 10480 1 1.500000e+00 97.052576 -140.400000 1.293272
41 10481 1 1.500000e+00 98.236295 -138.350000 -3.460362
42 10481 1 1.500000e+00 100.603280 -138.350000 0.887117
43 10482 1 1.500000e+00 101.786999 -136.300000 -3.774029
44 10482 1 1.500000e+00 104.153984 -136.300000 0.625779
45 10483 1 1.500000e+00 105.337703 -134.250000 -3.936813
46 10483 1 1.500000e+00 107.704688 -134.250000 0.518578
47 10484 1 1.500000e+00 108.888408 -132.200000 -3.941097
48 10484 1 1.500000e+00 111.255392 -132.200000 0.571786
49 10485 1 1.500000e+00 112.439112 -130.150000 -3.782384
50 10485 1 1.500000e+00 114.806096 -130.150000 0.788512
51 10486 1 1.500000e+00 115.989816 -128.100000 -3.459389
52 10486 1 1.500000e+00 118.356800 -128.100000 1.168630
53 10487 1 1.500000e+00 119.540520 -126.050000 -2.974067
54 10487 1 1.500000e+00 121.907505 -126.050000 1.708778
55 10488 1 1.500000e+00 123.091224 -124.000000 -2.331590
56 10678 1 1.500000e+00 84.033478 -142.450000 -2.474948
57 10678 1 1.500000e+00 86.400463 -142.450000 1.778771
58 10679 1 1.500000e+00 87.584183 -140.400000 -3.169106
59 10679 1 1.500000e+00 89.951167 -140.400000 1.120054
60 10680 1 1.500000e+00 91.134887 -138.350000 -3.756081
61 10680 1 1.500000e+00 93.501871 -138.350000 0.575519
62 10681 1 1.500000e+00 94.685591 -136.300000 -4.219281
63 10681 1 1.500000e+00 97.052576 -136.300000 0.160735
64 10682 1 1.500000e+00 98.236295 -134.250000 -4.544543
65 10682 1 1.500000e+00 100.603280 -134.250000 -0.111281
66 10683 1 1.500000e+00 101.786999 -132.200000 -4.720402
67 10683 1 1.500000e+00 104.153984 -132.200000 -0.230309
68 10684 1 1.500000e+00 105.337703 -130.150000 -4.738306
69 10684 1 1.500000e+00 107.704688 -130.150000 -0.189127
70 10685 1 1.500000e+00 108.888408 -128.100000 -4.592787
71 10685 1 1.500000e+00 111.255392 -128.100000 0.016354
72 10686 1 1.500000e+00 112.439112 -126.050000 -4.281564
73 10686 1 1.500000e+00 114.806096 -126.050000 0.387001
74 10687 1 1.500000e+00 115.989816 -124.000000 -3.805602
75 10687 1 1.500000e+00 118.356800 -124.000000 0.920441
76 10688 1 1.500000e+00 119.540520 -121.950000 -3.169095
77 10688 1 1.500000e+00 121.907505 -121.950000 1.611086
78 10689 1 1.500000e+00 123.091224 -119.900000 -2.379406
79 10877 1 1.500000e+00 76.932070 -142.450000 -2.511813
80 10877 1 1.500000e+00 79.299055 -142.450000 1.737564
81 10878 1 1.500000e+00 80.482774 -140.400000 -3.296930
82 10878 1 1.500000e+00 82.849759 -140.400000 0.980089
83 10879 1 1.500000e+00 84.033478 -138.350000 -3.998055
84 10879 1 1.500000e+00 86.400463 -138.350000 0.314676
85 10880 1 1.500000e+00 87.584183 -136.300000 -4.595900
86 10880 1 1.500000e+00 89.951167 -136.300000 -0.240223
87 10881 1 1.500000e+00 91.134887 -134.250000 -5.073186
88 10881 1 1.500000e+00 93.501871 -134.250000 -0.668310
89 10882 1 1.500000e+00 94.685591 -132.200000 -5.414967
90 10882 1 1.500000e+00 97.052576 -132.200000 -0.955749
91 10883 1 1.500000e+00 98.236295 -130.150000 -5.608913
92 10883 1 1.500000e+00 100.603280 -130.150000 -1.091434
93 10884 1 1.500000e+00 101.786999 -128.100000 -5.645547
94 10884 1 1.500000e+00 104.153984 -128.100000 -1.067195
95 10885 1 1.500000e+00 105.337703 -126.050000 -5.518427
96 10885 1 1.500000e+00 107.704688 -126.050000 -0.877961
97 10886 1 1.500000e+00 108.888408 -124.000000 -5.224276
98 10886 1 1.500000e+00 111.255392 -124.000000 -0.521863
99 10887 1 1.500000e+00 112.439112 -121.950000 -4.763050
100 10887 1 1.500000e+00 114.806096 -121.950000 -0.000277
101 10888 1 1.500000e+00 115.989816 -119.900000 -4.137953
102 10888 1 1.500000e+00 118.356800 -119.900000 0.682189
103 10889 1 1.500000e+00 119.540520 -117.850000 -3.355385
104 10889 1 1.500000e+00 121.907505 -117.850000 1.517771
105 10890 1 1.500000e+00 123.091224 -115.800000 -2.424842
106 11076 1 1.500000e+00 69.830662 -142.450000 -2.534925
107 11076 1 1.500000e+00 72.197646 -142.450000 1.709763
108 11077 1 1.500000e+00 73.381366 -140.400000 -3.385766
109 11077 1 1.500000e+00 75.748351 -140.400000 0.877877
110 11078 1 1.500000e+00 76.932070 -138.350000 -4.178505
111 11078 1 1.500000e+00 79.299055 -138.350000 0.112973
112 11079 1 1.500000e+00 80.482774 -136.300000 -4.891780
113 11079 1 1.500000e+00 82.849759 -136.300000 -0.564206
114 11080 1 1.500000e+00 84.033478 -134.250000 -5.505750
115 11080 1 1.500000e+00 86.400463 -134.250000 -1.134605
116 11081 1 1.500000e+00 87.584183 -132.200000 -6.002468
117 11081 1 1.500000e+00 89.951167 -132.200000 -1.581218
118 11082 1 1.500000e+00 91.134887 -130.150000 -6.366222
119 11082 1 1.500000e+00 93.501871 -130.150000 -1.889409
120 11083 1 1.500000e+00 94.685591 -128.100000 -6.583832
121 11083 1 1.500000e+00 97.052576 -128.100000 -2.047190
122 11084 1 1.500000e+00 98.236295 -126.050000 -6.644901
123 11084 1 1.500000e+00 100.603280 -126.050000 -2.045452
124 11085 1 1.500000e+00 101.786999 -124.000000 -6.542015
125 11085 1 1.500000e+00 104.153984 -124.000000 -1.878140
126 11086 1 1.500000e+00 105.337703 -121.950000 -6.270895
127 11086 1 1.500000e+00 107.704688 -121.950000 -1.542378
128 11087 1 1.500000e+00 108.888408 -119.900000 -5.830481
129 11087 1 1.500000e+00 111.255392 -119.900000 -1.038529
130 11088 1 1.500000e+00 112.439112 -117.850000 -5.222965
131 11088 1 1.500000e+00 114.806096 -117.850000 -0.370205
132 11089 1 1.500000e+00 115.989816 -115.800000 -4.453766
133 11089 1 1.500000e+00 118.356800 -115.800000 0.455794
134 11090 1 1.500000e+00 119.540520 -113.750000 -3.531439
135 11090 1 1.500000e+00 121.907505 -113.750000 1.429584
136 11091 1 1.500000e+00 123.091224 -111.700000 -2.467533
137 11275 1 1.500000e+00 62.729254 -142.450000 -2.543540
138 11275 1 1.500000e+00 65.096238 -142.450000 1.696262
139 11276 1 1.500000e+00 66.279958 -140.400000 -3.432758
140 11276 1 1.500000e+00 68.646942 -140.400000 0.816702
141 11277 1 1.500000e+00 69.830662 -138.350000 -4.291633
142 11277 1 1.500000e+00 72.197646 -138.350000 -0.023109
143 11278 1 1.500000e+00 73.381366 -136.300000 -5.097412
144 11278 1 1.500000e+00 75.748351 -136.300000 -0.800802
145 11279 1 1.500000e+00 76.932070 -134.250000 -5.828332
146 11279 1 1.500000e+00 79.299055 -134.250000 -1.495180
147 11280 1 1.500000e+00 80.482774 -132.200000 -6.464022
148 11280 1 1.500000e+00 82.849759 -132.200000 -2.086611
149 11281 1 1.500000e+00 84.033478 -130.150000 -6.985894
150 11281 1 1.500000e+00 86.400463 -130.150000 -2.557402
151 11282 1 1.500000e+00 87.584183 -128.100000 -7.377486
152 11282 1 1.500000e+00 89.951167 -128.100000 -2.892133
153 11283 1 1.500000e+00 91.134887 -126.050000 -7.624780
154 11283 1 1.500000e+00 93.501871 -126.050000 -3.077947
155 11284 1 1.500000e+00 94.685591 -124.000000 -7.716467
156 11284 1 1.500000e+00 97.052576 -124.000000 -3.104799
157 11285 1 1.500000e+00 98.236295 -121.950000 -7.644166
158 11285 1 1.500000e+00 100.603280 -121.950000 -2.965652
159 11286 1 1.500000e+00 101.786999 -119.900000 -7.402590
160 11286 1 1.500000e+00 104.153984 -119.900000 -2.656615
161 11287 1 1.500000e+00 105.337703 -117.850000 -6.989652
162 11287 1 1.500000e+00 107.704688 -117.850000 -2.177028
163 11288 1 1.500000e+00 108.888408 -115.800000 -6.406520
164 11288 1 1.500000e+00 111.255392 -115.800000 -1.529486
165 11289 1 1.500000e+00 112.439112 -113.750000 -5.657606
166 11289 1 1.500000e+00 114.806096 -113.750000 -0.719803
167 11290 1 1.500000e+00 115.989816 -111.700000 -4.750498
168 11290 1 1.500000e+00 118.356800 -111.700000 0.243076
169 11291 1 1.500000e+00 119.540520 -109.650000 -3.695837
170 11291 1 1.500000e+00 121.907505 -109.650000 1.347234
171 11292 1 1.500000e+00 123.091224 -107.600000 -2.507135
172 11474 1 1.500000e+00 55.627845 -142.450000 -2.537382
173 11474 1 1.500000e+00 57.994830 -142.450000 1.697495
174 11475 1 1.500000e+00 59.178549 -140.400000 -3.436396
175 11475 1 1.500000e+00 61.545534 -140.400000 0.798531
176 11476 1 1.500000e+00 62.729254 -138.350000 -4.333802
177 11476 1 1.500000e+00 65.096238 -138.350000 -0.089194
178 11477 1 1.500000e+00 66.279958 -136.300000 -5.206188
179 11477 1 1.500000e+00 68.646942 -136.300000 -0.942407
180 11478 1 1.500000e+00 69.830662 -134.250000 -6.030565
181 11478 1 1.500000e+00 72.197646 -134.250000 -1.738446
182 11479 1 1.500000e+00 73.381366 -132.200000 -6.784796
183 11479 1 1.500000e+00 75.748351 -132.200000 -2.455686
184 11480 1 1.500000e+00 76.932070 -130.150000 -7.448011
185 11480 1 1.500000e+00 79.299055 -130.150000 -3.073946
186 11481 1 1.500000e+00 80.482774 -128.100000 -8.000999
187 11481 1 1.500000e+00 82.849759 -128.100000 -3.574868
188 11482 1 1.500000e+00 84.033478 -126.050000 -8.426570
189 11482 1 1.500000e+00 86.400463 -126.050000 -3.942261
190 11483 1 1.500000e+00 87.584183 -124.000000 -8.709883
191 11483 1 1.500000e+00 89.951167 -124.000000 -4.162414
192 11484 1 1.500000e+00 91.134887 -121.950000 -8.838725
193 11484 1 1.500000e+00 93.501871 -121.950000 -4.224355
194 11485 1 1.500000e+00 94.685591 -119.900000 -8.803751
195 11485 1 1.500000e+00 97.052576 -119.900000 -4.120063
196 11486 1 1.500000e+00 98.236295 -117.850000 -8.598664
197 11486 1 1.500000e+00 100.603280 -117.850000 -3.844627
198 11487 1 1.500000e+00 101.786999 -115.800000 -8.220341
199 11487 1 1.500000e+00 104.153984 -115.800000 -3.396353
200 11488 1 1.500000e+00 105.337703 -113.750000 -7.668910
201 11488 1 1.500000e+00 107.704688 -113.750000 -2.776802
202 11489 1 1.500000e+00 108.888408 -111.700000 -6.947756
203 11489 1 1.500000e+00 111.255392 -111.700000 -1.990779
204 11490 1 1.500000e+00 112.439112 -109.650000 -6.063473
205 11490 1 1.500000e+00 114.806096 -109.650000 -1.046259
206 11491 1 1.500000e+00 115.989816 -107.600000 -5.025760
207 11491 1 1.500000e+00 118.356800 -107.600000 0.045750
208 11492 1 1.500000e+00 119.540520 -105.550000 -3.847257
209 11492 1 1.500000e+00 121.907505 -105.550000 1.271386
210 11493 1 1.500000e+00 123.091224 -103.500000 -2.543329
211 11673 1 1.500000e+00 48.526437 -142.450000 -2.516647
212 11673 1 1.500000e+00 50.893421 -142.450000 1.713422
213 11674 1 1.500000e+00 52.077141 -140.400000 -3.396564
214 11674 1 1.500000e+00 54.444126 -140.400000 0.823948
215 11675 1 1.500000e+00 55.627845 -138.350000 -4.303657
216 11675 1 1.500000e+00 57.994830 -138.350000 -0.083159
217 11676 1 1.500000e+00 59.178549 -136.300000 -5.214610
218 11676 1 1.500000e+00 61.545534 -136.300000 -0.984468
219 11677 1 1.500000e+00 62.729254 -134.250000 -6.105948
220 11677 1 1.500000e+00 65.096238 -134.250000 -1.856583
221 11678 1 1.500000e+00 66.279958 -132.200000 -6.954478
222 11678 1 1.500000e+00 68.646942 -132.200000 -2.676580
223 11679 1 1.500000e+00 69.830662 -130.150000 -7.737721
224 11679 1 1.500000e+00 72.197646 -130.150000 -3.422437
225 11680 1 1.500000e+00 73.381366 -128.100000 -8.434331
226 11680 1 1.500000e+00 75.748351 -128.100000 -4.073450
227 11681 1 1.500000e+00 76.932070 -126.050000 -9.024501
228 11681 1 1.500000e+00 79.299055 -126.050000 -4.610614
229 11682 1 1.500000e+00 80.482774 -124.000000 -9.490334
230 11682 1 1.500000e+00 82.849759 -124.000000 -5.016993
231 11683 1 1.500000e+00 84.033478 -121.950000 -9.816178
232 11683 1 1.500000e+00 86.400463 -121.950000 -5.278031
233 11684 1 1.500000e+00 87.584183 -119.900000 -9.988931
234 11684 1 1.500000e+00 89.951167 -119.900000 -5.381834
235 11685 1 1.500000e+00 91.134887 -117.850000 -9.998285
236 11685 1 1.500000e+00 93.501871 -117.850000 -5.319403
237 11686 1 1.500000e+00 94.685591 -115.800000 -9.836931
238 11686 1 1.500000e+00 97.052576 -115.800000 -5.084805
239 11687 1 1.500000e+00 98.236295 -113.750000 -9.500708
240 11687 1 1.500000e+00 100.603280 -113.750000 -4.675299
241 11688 1 1.500000e+00 101.786999 -111.700000 -8.988685
242 11688 1 1.500000e+00 104.153984 -111.700000 -4.091397
243 11689 1 1.500000e+00 105.337703 -109.650000 -8.303201
244 11689 1 1.500000e+00 107.704688 -109.650000 -3.336871
245 11690 1 1.500000e+00 108.888408 -107.600000 -7.449831
246 11690 1 1.500000e+00 111.255392 -107.600000 -2.418696
247 11691 1 1.500000e+00 112.439112 -105.550000 -6.437299
248 11691 1 1.500000e+00 114.806096 -105.550000 -1.346942
249 11692 1 1.500000e+00 115.989816 -103.500000 -5.277336
250 11692 1 1.500000e+00 118.356800 -103.500000 -0.134596
251 11693 1 1.500000e+00 119.540520 -101.450000 -3.984479
252 11693 1 1.500000e+00 121.907505 -101.450000 1.202650
253 11694 1 1.500000e+00 123.091224 -99.400000 -2.575824
254 11872 1 1.500000e+00 41.425029 -142.450000 -2.482004
255 11872 1 1.500000e+00 43.792013 -142.450000 1.743531
256 11873 1 1.500000e+00 44.975733 -140.400000 -3.314541
257 11873 1 1.500000e+00 47.342717 -140.400000 0.892136
258 11874 1 1.500000e+00 48.526437 -138.350000 -4.202166
259 11874 1 1.500000e+00 50.893421 -138.350000 -0.005198
260 11875 1 1.500000e+00 52.077141 -136.300000 -5.122407
261 11875 1 1.500000e+00 54.444126 -136.300000 -0.925635
262 11876 1 1.500000e+00 55.627845 -134.250000 -6.052059
263 11876 1 1.500000e+00 57.994830 -134.250000 -1.845795
264 11877 1 1.500000e+00 59.178549 -132.200000 -6.967616
265 11877 1 1.500000e+00 61.545534 -132.200000 -2.742193
266 11878 1 1.500000e+00 62.729254 -130.150000 -7.845711
267 11878 1 1.500000e+00 65.096238 -130.150000 -3.591676
268 11879 1 1.500000e+00 66.279958 -128.100000 -8.663554
269 11879 1 1.500000e+00 68.646942 -128.100000 -4.371854
270 11880 1 1.500000e+00 69.830662 -126.050000 -9.399355
271 11880 1 1.500000e+00 72.197646 -126.050000 -5.061526
272 11881 1 1.500000e+00 73.381366 -124.000000 -10.032735
273 11881 1 1.500000e+00 75.748351 -124.000000 -5.641068
274 11882 1 1.500000e+00 76.932070 -121.950000 -10.545109
275 11882 1 1.500000e+00 79.299055 -121.950000 -6.092812
276 11883 1 1.500000e+00 80.482774 -119.900000 -10.920036
277 11883 1 1.500000e+00 82.849759 -119.900000 -6.401376
278 11884 1 1.500000e+00 84.033478 -117.850000 -11.143531
279 11884 1 1.500000e+00 86.400463 -117.850000 -6.553956
280 11885 1 1.500000e+00 87.584183 -115.800000 -11.204333
281 11885 1 1.500000e+00 89.951167 -115.800000 -6.540575
282 11886 1 1.500000e+00 91.134887 -113.750000 -11.094122
283 11886 1 1.500000e+00 93.501871 -113.750000 -6.354274
284 11887 1 1.500000e+00 94.685591 -111.700000 -10.807689
285 11887 1 1.500000e+00 97.052576 -111.700000 -5.991260
286 11888 1 1.500000e+00 98.236295 -109.650000 -10.343036
287 11888 1 1.500000e+00 100.603280 -109.650000 -5.450980
288 11889 1 1.500000e+00 101.786999 -107.600000 -9.701436
289 11889 1 1.500000e+00 104.153984 -107.600000 -4.736151
290 11890 1 1.500000e+00 105.337703 -105.550000 -8.887418
291 11890 1 1.500000e+00 107.704688 -105.550000 -3.852724
292 11891 1 1.500000e+00 108.888408 -103.500000 -7.908702
293 11891 1 1.500000e+00 111.255392 -103.500000 -2.809791
294 11892 1 1.500000e+00 112.439112 -101.450000 -6.776073
295 11892 1 1.500000e+00 114.806096 -101.450000 -1.619432
296 11893 1 1.500000e+00 115.989816 -99.400000 -5.503200
297 11893 1 1.500000e+00 118.356800 -99.400000 -0.296511
298 11894 1 1.500000e+00 119.540520 -97.350000 -4.106399
299 11894 1 1.500000e+00 121.907505 -97.350000 1.141578
300 11895 1 1.500000e+00 123.091224 -95.300000 -2.604358
301 12071 1 1.500000e+00 34.323620 -142.450000 -2.434565
302 12071 1 1.500000e+00 36.690605 -142.450000 1.786856
303 12072 1 1.500000e+00 37.874324 -140.400000 -3.192964
304 12072 1 1.500000e+00 40.241309 -140.400000 1.000902
305 12073 1 1.500000e+00 41.425029 -138.350000 -4.032593
306 12073 1 1.500000e+00 43.792013 -138.350000 0.142183
307 12074 1 1.500000e+00 44.975733 -136.300000 -4.932545
308 12074 1 1.500000e+00 47.342717 -136.300000 -0.767797
309 12075 1 1.500000e+00 48.526437 -134.250000 -5.870630
310 12075 1 1.500000e+00 50.893421 -134.250000 -1.706428
311 12076 1 1.500000e+00 52.077141 -132.200000 -6.823787
312 12076 1 1.500000e+00 54.444126 -132.200000 -2.650416
313 12077 1 1.500000e+00 55.627845 -130.150000 -7.768512
314 12077 1 1.500000e+00 57.994830 -130.150000 -3.576221
315 12078 1 1.500000e+00 59.178549 -128.100000 -8.681302
316 12078 1 1.500000e+00 61.545534 -128.100000 -4.460491
317 12079 1 1.500000e+00 62.729254 -126.050000 -9.539084
318 12079 1 1.500000e+00 65.096238 -126.050000 -5.280502
319 12080 1 1.500000e+00 66.279958 -124.000000 -10.319654
320 12080 1 1.500000e+00 68.646942 -124.000000 -6.014581
321 12081 1 1.500000e+00 69.830662 -121.950000 -11.002089
322 12081 1 1.500000e+00 72.197646 -121.950000 -6.642513
323 12082 1 1.500000e+00 73.381366 -119.900000 -11.567140
324 12082 1 1.500000e+00 75.748351 -119.900000 -7.145920
325 12083 1 1.500000e+00 76.932070 -117.850000 -11.997593
326 12083 1 1.500000e+00 79.299055 -117.850000 -7.508607
327 12084 1 1.500000e+00 80.482774 -115.800000 -12.278595
328 12084 1 1.500000e+00 82.849759 -115.800000 -7.716871
329 12085 1 1.500000e+00 84.033478 -113.750000 -12.397941
330 12085 1 1.500000e+00 86.400463 -113.750000 -7.759765
331 12086 1 1.500000e+00 87.584183 -111.700000 -12.346302
332 12086 1 1.500000e+00 89.951167 -111.700000 -7.629306
333 12087 1 1.500000e+00 91.134887 -109.650000 -12.117415
334 12087 1 1.500000e+00 93.501871 -109.650000 -7.320637
335 12088 1 1.500000e+00 94.685591 -107.600000 -11.708207
336 12088 1 1.500000e+00 97.052576 -107.600000 -6.832128
337 12089 1 1.500000e+00 98.236295 -105.550000 -11.118867
338 12089 1 1.500000e+00 100.603280 -105.550000 -6.165424
339 12090 1 1.500000e+00 101.786999 -103.500000 -10.352855
340 12090 1 1.500000e+00 104.153984 -103.500000 -5.325424
341 12091 1 1.500000e+00 105.337703 -101.450000 -9.416857
342 12091 1 1.500000e+00 107.704688 -101.450000 -4.320210
343 12092 1 1.500000e+00 108.888408 -99.400000 -8.320676
344 12092 1 1.500000e+00 111.255392 -99.400000 -3.160915
345 12093 1 1.500000e+00 112.439112 -97.350000 -7.077070
346 12093 1 1.500000e+00 114.806096 -97.350000 -1.861535
347 12094 1 1.500000e+00 115.989816 -95.300000 -5.701533
348 12094 1 1.500000e+00 118.356800 -95.300000 -0.438690
349 12095 1 1.500000e+00 119.540520 -93.250000 -4.212035
350 12095 1 1.500000e+00 121.907505 -93.250000 1.088664
351 12096 1 1.500000e+00 123.091224 -91.200000 -2.628702
352 12270 1 1.500000e+00 27.222212 -142.450000 -2.375854
353 12270 1 1.500000e+00 29.589197 -142.450000 1.842002
354 12271 1 1.500000e+00 30.772916 -140.400000 -3.035740
355 12271 1 1.500000e+00 33.139901 -140.400000 1.146753
356 12272 1 1.500000e+00 34.323620 -138.350000 -3.800386
357 12272 1 1.500000e+00 36.690605 -138.350000 0.354247
358 12273 1 1.500000e+00 37.874324 -136.300000 -4.651124
359 12273 1 1.500000e+00 40.241309 -136.300000 -0.516029
360 12274 1 1.500000e+00 41.425029 -134.250000 -5.567492
361 12274 1 1.500000e+00 43.792013 -134.250000 -1.442962
362 12275 1 1.500000e+00 44.975733 -132.200000 -6.527613
363 12275 1 1.500000e+00 47.342717 -132.200000 -2.404200
364 12276 1 1.500000e+00 48.526437 -130.150000 -7.508605
365 12276 1 1.500000e+00 50.893421 -130.150000 -3.376571
366 12277 1 1.500000e+00 52.077141 -128.100000 -8.487003
367 12277 1 1.500000e+00 54.444126 -128.100000 -4.336510
368 12278 1 1.500000e+00 55.627845 -126.050000 -9.439196
369 12278 1 1.500000e+00 57.994830 -126.050000 -5.260505
370 12279 1 1.500000e+00 59.178549 -124.000000 -10.341869
371 12279 1 1.500000e+00 61.545534 -124.000000 -6.125528
372 12280 1 1.500000e+00 62.729254 -121.950000 -11.172431
373 12280 1 1.500000e+00 65.096238 -121.950000 -6.909465
374 12281 1 1.500000e+00 66.279958 -119.900000 -11.909445
375 12281 1 1.500000e+00 68.646942 -119.900000 -7.591534
376 12282 1 1.500000e+00 69.830662 -117.850000 -12.533020
377 12282 1 1.500000e+00 72.197646 -117.850000 -8.152671
378 12283 1 1.500000e+00 73.381366 -115.800000 -13.025192
379 12283 1 1.500000e+00 75.748351 -115.800000 -8.575888
380 12284 1 1.500000e+00 76.932070 -113.750000 -13.370257
381 12284 1 1.500000e+00 79.299055 -113.750000 -8.846598
382 12285 1 1.500000e+00 80.482774 -111.700000 -13.555073
383 12285 1 1.500000e+00 82.849759 -111.700000 -8.952886
384 12286 1 1.500000e+00 84.033478 -109.650000 -13.569308
385 12286 1 1.500000e+00 86.400463 -109.650000 -8.885749
386 12287 1 1.500000e+00 87.584183 -107.600000 -13.405644
387 12287 1 1.500000e+00 89.951167 -107.600000 -8.639262
388 12288 1 1.500000e+00 91.134887 -105.550000 -13.059923
389 12288 1 1.500000e+00 93.501871 -105.550000 -8.210709
390 12289 1 1.500000e+00 94.685591 -103.500000 -12.531236
391 12289 1 1.500000e+00 97.052576 -103.500000 -7.600640
392 12290 1 1.500000e+00 98.236295 -101.450000 -11.821953
393 12290 1 1.500000e+00 100.603280 -101.450000 -6.812880
394 12291 1 1.500000e+00 101.786999 -99.400000 -10.937697
395 12291 1 1.500000e+00 104.153984 -99.400000 -5.854472
396 12292 1 1.500000e+00 105.337703 -97.350000 -9.887255
397 12292 1 1.500000e+00 107.704688 -97.350000 -4.735564
398 12293 1 1.500000e+00 108.888408 -95.300000 -8.682435
399 12293 1 1.500000e+00 111.255392 -95.300000 -3.469241
400 12294 1 1.500000e+00 112.439112 -93.250000 -7.337863
401 12294 1 1.500000e+00 114.806096 -93.250000 -2.071302
402 12295 1 1.500000e+00 115.989816 -91.200000 -5.870740
403 12295 1 1.500000e+00 118.356800 -91.200000 -0.559988
404 12296 1 1.500000e+00 119.540520 -89.150000 -4.300536
405 12296 1 1.500000e+00 121.907505 -89.150000 1.044333
406 12297 1 1.500000e+00 123.091224 -87.100000 -2.648659
407 12469 1 1.500000e+00 20.120804 -142.450000 -2.307760
408 12469 1 1.500000e+00 22.487788 -142.450000 1.907199
409 12470 1 1.500000e+00 23.671508 -140.400000 -2.847923
410 12470 1 1.500000e+00 26.038492 -140.400000 1.324999
411 12471 1 1.500000e+00 27.222212 -138.350000 -3.513010
412 12471 1 1.500000e+00 29.589197 -138.350000 0.624179
413 12472 1 1.500000e+00 30.772916 -136.300000 -4.287190
414 12472 1 1.500000e+00 33.139901 -136.300000 -0.178422
415 12473 1 1.500000e+00 34.323620 -134.250000 -5.152387
416 12473 1 1.500000e+00 36.690605 -134.250000 -1.063865
417 12474 1 1.500000e+00 37.874324 -132.200000 -6.088614
418 12474 1 1.500000e+00 40.241309 -132.200000 -2.011458
419 12475 1 1.500000e+00 41.425029 -130.150000 -7.074343
420 12475 1 1.500000e+00 43.792013 -130.150000 -2.999141
421 12476 1 1.500000e+00 44.975733 -128.100000 -8.086903
422 12476 1 1.500000e+00 47.342717 -128.100000 -4.003898
423 12477 1 1.500000e+00 48.526437 -126.050000 -9.102903
424 12477 1 1.500000e+00 50.893421 -126.050000 -5.002179
425 12478 1 1.500000e+00 52.077141 -124.000000 -10.098665
426 12478 1 1.500000e+00 54.444126 -124.000000 -5.970341
427 12479 1 1.500000e+00 55.627845 -121.950000 -11.050660
428 12479 1 1.500000e+00 57.994830 -121.950000 -6.885087
429 12480 1 1.500000e+00 59.178549 -119.900000 -11.935947
430 12480 1 1.500000e+00 61.545534 -119.900000 -7.723897
431 12481 1 1.500000e+00 62.729254 -117.850000 -12.732603
432 12481 1 1.500000e+00 65.096238 -117.850000 -8.465448
433 12482 1 1.500000e+00 66.279958 -115.800000 -13.420125
434 12482 1 1.500000e+00 68.646942 -115.800000 -9.090016
435 12483 1 1.500000e+00 69.830662 -113.750000 -13.979820
436 12483 1 1.500000e+00 72.197646 -113.750000 -9.579840
437 12484 1 1.500000e+00 73.381366 -111.700000 -14.395150
438 12484 1 1.500000e+00 75.748351 -111.700000 -9.919461
439 12485 1 1.500000e+00 76.932070 -109.650000 -14.652050
440 12485 1 1.500000e+00 79.299055 -109.650000 -10.096013
441 12486 1 1.500000e+00 80.482774 -107.600000 -14.739191
442 12486 1 1.500000e+00 82.849759 -107.600000 -10.099470
443 12487 1 1.500000e+00 84.033478 -105.550000 -14.648201
444 12487 1 1.500000e+00 86.400463 -105.550000 -9.922841
445 12488 1 1.500000e+00 87.584183 -103.500000 -14.373830
446 12488 1 1.500000e+00 89.951167 -103.500000 -9.562312
447 12489 1 1.500000e+00 91.134887 -101.450000 -13.914059
448 12489 1 1.500000e+00 93.501871 -101.450000 -9.017325
449 12490 1 1.500000e+00 94.685591 -99.400000 -13.270149
450 12490 1 1.500000e+00 97.052576 -99.400000 -8.290608
451 12491 1 1.500000e+00 98.236295 -97.350000 -12.446634
452 12491 1 1.500000e+00 100.603280 -97.350000 -7.388134
453 12492 1 1.500000e+00 101.786999 -95.300000 -11.451253
454 12492 1 1.500000e+00 104.153984 -95.300000 -6.319035
455 12493 1 1.500000e+00 105.337703 -93.250000 -10.294825
456 12493 1 1.500000e+00 107.704688 -93.250000 -5.095441
457 12494 1 1.500000e+00 108.888408 -91.200000 -8.991066
458 12494 1 1.500000e+00 111.255392 -91.200000 -3.732286
459 12495 1 1.500000e+00 112.439112 -89.150000 -7.556355
460 12495 1 1.500000e+00 114.806096 -89.150000 -2.247044
461 12496 1 1.500000e+00 115.989816 -87.100000 -6.009457
462 12496 1 1.500000e+00 118.356800 -87.100000 -0.659430
463 12497 1 1.500000e+00 119.540520 -85.050000 -4.371190
464 12497 1 1.500000e+00 121.907505 -85.050000 1.008941
465 12498 1 1.500000e+00 123.091224 -83.000000 -2.664069
466 12668 1 1.500000e+00 13.019395 -142.450000 -2.232470
467 12668 1 1.500000e+00 15.386380 -142.450000 1.980349
468 12669 1 1.500000e+00 16.570099 -140.400000 -2.635549
469 12669 1 1.500000e+00 18.937084 -140.400000 1.529911
470 12670 1 1.500000e+00 20.120804 -138.350000 -3.179700
471 12670 1 1.500000e+00 22.487788 -138.350000 0.943303
472 12671 1 1.500000e+00 23.671508 -136.300000 -3.852440
473 12671 1 1.500000e+00 26.038492 -136.300000 0.234173
474 12672 1 1.500000e+00 27.222212 -134.250000 -4.638659
475 12672 1 1.500000e+00 29.589197 -134.250000 -0.581321
476 12673 1 1.500000e+00 30.772916 -132.200000 -5.520900
477 12673 1 1.500000e+00 33.139901 -132.200000 -1.484812
478 12674 1 1.500000e+00 34.323620 -130.150000 -6.479683
479 12674 1 1.500000e+00 36.690605 -130.150000 -2.456064
480 12675 1 1.500000e+00 37.874324 -128.100000 -7.493861
481 12675 1 1.500000e+00 40.241309 -128.100000 -3.473343
482 12676 1 1.500000e+00 41.425029 -126.050000 -8.541014
483 12676 1 1.500000e+00 43.792013 -126.050000 -4.513825
484 12677 1 1.500000e+00 44.975733 -124.000000 -9.597860
485 12677 1 1.500000e+00 47.342717 -124.000000 -5.554010
486 12678 1 1.500000e+00 48.526437 -121.950000 -10.640689
487 12678 1 1.500000e+00 50.893421 -121.950000 -6.570164
488 12679 1 1.500000e+00 52.077141 -119.900000 -11.645797
489 12679 1 1.500000e+00 54.444126 -119.900000 -7.538754
490 12680 1 1.500000e+00 55.627845 -117.850000 -12.589928
491 12680 1 1.500000e+00 57.994830 -117.850000 -8.436886
492 12681 1 1.500000e+00 59.178549 -115.800000 -13.450703
493 12681 1 1.500000e+00 61.545534 -115.800000 -9.242730
494 12682 1 1.500000e+00 62.729254 -113.750000 -14.207038
495 12682 1 1.500000e+00 65.096238 -113.750000 -9.935925
496 12683 1 1.500000e+00 66.279958 -111.700000 -14.839534
497 12683 1 1.500000e+00 68.646942 -111.700000 -10.497962
498 12684 1 1.500000e+00 69.830662 -109.650000 -15.330841
499 12684 1 1.500000e+00 72.197646 -109.650000 -10.912529
500 12685 1 1.500000e+00 73.381366 -107.600000 -15.665986
501 12685 1 1.500000e+00 75.748351 -107.600000 -11.165819
502 12686 1 1.500000e+00 76.932070 -105.550000 -15.832652
503 12686 1 1.500000e+00 79.299055 -105.550000 -11.246793
504 12687 1 1.500000e+00 80.482774 -103.500000 -15.821416
505 12687 1 1.500000e+00 82.849759 -103.500000 -11.147390
506 12688 1 1.500000e+00 84.033478 -101.450000 -15.625934
507 12688 1 1.500000e+00 86.400463 -101.450000 -10.862693
508 12689 1 1.500000e+00 87.584183 -99.400000 -15.243065
509 12689 1 1.500000e+00 89.951167 -99.400000 -10.391024
510 12690 1 1.500000e+00 91.134887 -97.350000 -14.672945
511 12690 1 1.500000e+00 93.501871 -97.350000 -9.733991
512 12691 1 1.500000e+00 94.685591 -95.300000 -13.918996
513 12691 1 1.500000e+00 97.052576 -95.300000 -8.896476
514 12692 1 1.500000e+00 98.236295 -93.250000 -12.987880
515 12692 1 1.500000e+00 100.603280 -93.250000 -7.886556
516 12693 1 1.500000e+00 101.786999 -91.200000 -11.889389
517 12693 1 1.500000e+00 104.153984 -91.200000 -6.715372
518 12694 1 1.500000e+00 105.337703 -89.150000 -10.636285
519 12694 1 1.500000e+00 107.704688 -89.150000 -5.396945
520 12695 1 1.500000e+00 108.888408 -87.100000 -9.244084
521 12695 1 1.500000e+00 111.255392 -87.100000 -3.947933
522 12696 1 1.500000e+00 112.439112 -85.050000 -7.730786